/*--------------------------------*- C++ -*----------------------------------*\
  =========                 |
  \\      /  F ield         | OpenFOAM: The Open Source CFD Toolbox
   \\    /   O peration     | Website:  https://openfoam.org
    \\  /    A nd           | Version:  13
     \\/     M anipulation  |
\*---------------------------------------------------------------------------*/
FoamFile
{
    format      ascii;
    class       surfaceScalarField;
    location    "0.11";
    object      alphaPhi.water;
}
// * * * * * * * * * * * * * * * * * * * * * * * * * * * * * * * * * * * * * //

dimensions      [0 3 -1 0 0 0 0];

internalField   nonuniform List<scalar> 
150720
(
-1.5593298e-63
-1.2050359e-62
-3.9413945e-63
-2.0704076e-63
-7.2741009e-64
-1.6163877e-62
-4.9317202e-63
3.8440975e-77
-1.7373644e-62
-5.3437795e-63
-2.7833997e-79
-5.4396155e-75
-1.6738254e-75
-7.3725273e-79
-1.0570826e-76
-3.2524123e-77
6.0832363e-82
-1.5124761e-77
-4.6508418e-78
1.3594333e-81
-1.3391976e-80
-4.0796051e-81
-1.0257895e-80
-3.368273e-81
-1.7899126e-81
-1.2091102e-60
-2.9987153e-60
-1.6152483e-60
1.8063871e-60
-1.7098007e-61
-1.9034771e-60
-7.395526e-61
4.799457e-77
-3.5587099e-61
-1.4813558e-61
-2.2725245e-79
-8.4493096e-75
-3.8273628e-75
-9.0741083e-79
-1.6432002e-76
-7.4415506e-77
3.2117416e-64
-6.2485077e-64
-2.5994893e-64
2.2818239e-63
-3.5596685e-63
-1.3797804e-63
-5.5760352e-63
-3.0217298e-63
3.3663017e-63
-1.8787063e-60
-6.6561511e-60
-4.1349169e-60
2.6627367e-60
-1.7612023e-61
-4.5374249e-60
-1.7909483e-60
2.2895009e-76
-6.8485423e-61
-3.0331377e-61
-1.0078784e-78
-9.8215978e-75
-5.016248e-75
-4.4827004e-78
-1.9223474e-76
-9.8142863e-77
3.3429305e-64
-1.2445193e-63
-5.5067797e-64
3.5601298e-63
-8.5541403e-63
-3.367362e-63
-1.2440467e-62
-7.7769405e-63
4.989576e-63
-1.4390523e-60
-9.5540784e-60
-6.328064e-60
2.2692451e-60
-3.8511804e-62
-6.5419364e-60
-2.5942366e-60
2.8865735e-76
-7.9496994e-61
-3.6657954e-61
-1.9402654e-78
-1.0234463e-74
-5.648049e-75
-5.7564801e-78
-2.0270995e-76
-1.1180713e-76
7.3799021e-65
-1.4535392e-63
-6.6947078e-64
2.7239037e-63
-1.2358925e-62
-4.8876684e-63
-1.7904748e-62
-1.1923517e-62
4.2635147e-63
-4.4481652e-61
-1.173637e-59
-7.8558372e-60
1.6311597e-60
1.4084519e-62
-7.180094e-60
-2.9048767e-60
2.3726804e-76
-7.882446e-61
-3.8174297e-61
-2.2622072e-78
-1.0129921e-74
-5.9493877e-75
-4.8278267e-78
-2.0335953e-76
-1.193549e-76
-2.5952281e-65
-1.4420666e-63
-6.9745288e-64
8.3184287e-64
-1.3568123e-62
-5.4748543e-63
-2.205593e-62
-1.4816664e-62
3.0811704e-63
2.2785599e-61
-1.2645412e-59
-8.244565e-60
8.1360409e-61
2.9965817e-62
-6.8589079e-60
-2.884044e-60
1.4830667e-76
-7.347775e-61
-3.7912069e-61
-2.1703891e-78
-9.7806591e-75
-6.0158118e-75
-3.0995314e-78
-1.987636e-76
-1.2216989e-76
-5.5319843e-65
-1.3433735e-63
-6.92201e-64
-4.3768837e-64
-1.2962021e-62
-5.4367148e-63
-2.3807809e-62
-1.5544342e-62
1.5540398e-63
4.6350917e-61
-1.2212383e-59
-7.6250717e-60
-9.7722508e-63
3.1592671e-62
-6.1565446e-60
-2.7516995e-60
-3.1125764e-63
-6.6463251e-61
-3.7232609e-61
-4.138724e-67
-5.1054969e-63
-3.2347749e-63
5.3844653e-66
-9.5033347e-66
-6.0176971e-66
-5.8380808e-65
-1.2139619e-63
-6.7928698e-64
-8.8375181e-64
-1.1631844e-62
-5.1866195e-63
-2.3022046e-62
-1.4363998e-62
1.6076716e-66
5.8343877e-61
-6.7751838e-60
-2.2360505e-61
-1.1431563e-59
1.036509e-62
-2.641813e-60
-5.2653707e-60
-4.0657162e-62
-3.6324921e-61
-5.7525684e-61
3.9154853e-69
-3.449373e-62
-5.6369946e-62
7.3805292e-65
-6.3174617e-65
-1.0325957e-64
-2.0104435e-65
-6.6222334e-64
-1.049241e-63
-1.109521e-63
-4.9763322e-63
-9.9444782e-63
-1.2749855e-62
-4.0798581e-64
-2.1568563e-62
-1.3796226e-42
1.0498217e-42
-1.1826188e-42
-1.2210999e-42
-4.122114e-43
-2.0029046e-42
-1.4373246e-42
5.6513477e-48
-8.3708158e-43
-6.9333789e-43
-3.3224756e-50
-3.0694242e-47
-4.3571088e-47
-1.715165e-49
-9.3494277e-49
-1.3240988e-48
1.4759795e-47
-1.7515751e-47
-1.4466764e-47
6.4796188e-47
-7.1275834e-47
-5.0793581e-47
6.3599454e-47
-5.4648841e-47
-5.706294e-47
-4.8951977e-42
8.3544012e-43
-3.2482849e-42
5.768167e-42
-9.8219036e-43
-5.0824136e-42
-2.8274859e-42
2.5028752e-48
-1.4437024e-42
-1.077665e-42
-1.3319533e-50
-1.6366384e-47
-2.5555593e-47
-7.7032443e-50
-5.0564428e-49
-7.8742372e-49
5.05071e-47
-5.2203766e-47
-3.8852979e-47
2.8968753e-46
-2.6061518e-46
-1.4419332e-46
5.059102e-47
-1.9072626e-46
3.536685e-46
-1.7933297e-42
1.7797831e-43
-2.3549501e-42
3.5360128e-42
-1.4921424e-43
-5.4933367e-42
-2.511885e-42
1.7014942e-48
-1.1509871e-42
-7.5882791e-43
-7.639775e-51
-7.1830699e-48
-1.0788744e-47
-5.3572829e-50
-2.2611839e-49
-3.3853e-49
7.9895917e-48
-4.1965058e-47
-2.7572172e-47
1.0512132e-46
-2.878735e-46
-1.3098598e-46
1.1317075e-47
-1.3695143e-46
2.1463926e-46
-3.6741189e-43
-2.5838334e-43
-1.311745e-42
1.4529357e-42
5.1818293e-44
-4.7950149e-42
-1.9492521e-42
7.3254891e-49
-7.8809086e-43
-4.8479815e-43
-3.5611127e-51
-2.9201419e-48
-4.2576857e-48
-2.3600453e-50
-9.3905514e-50
-1.3640044e-49
-1.826022e-48
-2.7991481e-47
-1.7153249e-47
2.1237869e-47
-2.4919049e-46
-1.0083674e-46
-1.3685095e-47
-7.5177601e-47
8.6868497e-47
6.8481424e-44
-2.804811e-43
-4.8272891e-43
3.3642822e-43
6.4881856e-44
-3.8655543e-42
-1.494864e-42
2.5510183e-49
-5.1101097e-43
-3.1317924e-43
-1.2823325e-51
-1.1263542e-48
-1.6344392e-48
-8.3920178e-51
-3.6949447e-50
-5.3392031e-50
-2.2490283e-48
-1.7764061e-47
-1.0841247e-47
-3.4821879e-48
-1.9799403e-46
-7.6239656e-47
-1.5351525e-47
-2.6895612e-47
2.0197499e-47
3.0570303e-43
-3.4123008e-43
-3.5535852e-43
-2.4292177e-44
5.6593189e-44
-2.8900874e-42
-1.1167785e-42
7.7579433e-50
-3.1156887e-43
-2.0266311e-43
-3.7662544e-52
-4.1590209e-49
-6.0931262e-49
-2.5959133e-51
-1.3861548e-50
-2.0219392e-50
-1.9278657e-48
-1.0623133e-47
-6.8789491e-48
-1.5460477e-47
-1.460242e-46
-5.6195808e-47
-1.730021e-47
-1.8105203e-47
-1.1845589e-48
3.458871e-43
-4.2779445e-43
-3.2842214e-43
-6.7333626e-44
3.7687194e-44
-2.027958e-42
-8.2239261e-43
1.6709995e-50
-1.7797989e-43
-1.3105727e-43
-3.7092445e-53
-1.4943529e-49
-2.2152201e-49
-5.6115189e-52
-5.0070822e-51
-7.3921373e-51
-1.2601545e-48
-5.9545278e-48
-4.3644809e-48
-1.7267084e-47
-1.0119549e-46
-4.0870385e-47
-2.1136638e-47
-1.6219902e-47
-3.2852605e-48
2.992344e-43
-2.8976037e-43
-8.0088693e-44
-4.7123272e-43
1.6206777e-44
-6.067298e-43
-1.3269847e-42
-5.2623231e-45
-8.326389e-44
-9.3800617e-44
7.3139548e-53
-4.4556644e-45
-3.4593406e-45
1.7156583e-49
-2.4998426e-49
-1.946173e-49
-5.3333793e-49
-2.7168584e-48
-3.0739784e-48
-1.4767459e-47
-2.9821775e-47
-6.5527734e-47
-1.4108407e-47
-3.8676785e-48
-2.3024306e-47
5.8237111e-29
-1.077718e-26
1.0665048e-26
5.3895093e-29
1.0717603e-30
3.3335691e-31
5.7116295e-29
-9.8664554e-20
7.6299399e-20
1.2447237e-19
4.0977376e-22
2.2571652e-20
3.5709891e-19
5.5225138e-21
4.4656451e-21
1.5289879e-19
-1.4232137e-31
1.3484393e-20
2.2440695e-20
-7.1110272e-29
4.094209e-31
7.0558529e-29
-1.2949613e-26
1.2813104e-26
6.5398404e-29
2.6615337e-26
-1.3755394e-27
1.1440354e-24
-1.1800523e-24
1.9497041e-28
7.2763466e-28
2.5824276e-26
-5.44697e-22
2.0990765e-20
7.9702772e-20
4.3424338e-25
4.7792864e-24
1.8741445e-21
1.0962092e-22
8.341956e-25
5.2699853e-22
-1.8208428e-28
5.5127169e-21
1.6821764e-20
-3.1749353e-26
8.6867207e-28
3.0699463e-26
-9.45481e-28
1.3534547e-24
-1.3972082e-24
1.2952752e-27
-4.8937725e-26
7.1483439e-26
-2.5208936e-26
-1.7673296e-22
2.3788673e-23
1.5756194e-22
-3.7564564e-25
6.2259517e-21
1.9307256e-20
6.6819217e-28
6.6790381e-26
4.3361812e-24
1.5456574e-25
3.8890829e-26
6.4140722e-25
3.9070624e-23
2.3774362e-21
5.3404615e-21
-8.8296708e-28
3.6831659e-24
3.7623425e-23
-1.9837563e-26
4.8062628e-26
-3.0050546e-26
1.3422112e-26
-2.2805964e-24
2.2207209e-24
-3.2062806e-28
-8.5379462e-22
6.3930256e-22
3.3436307e-22
-5.970525e-26
2.1037658e-21
3.7726346e-21
5.147644e-30
3.7235042e-28
6.7076332e-27
3.6420789e-26
1.2364382e-28
2.351544e-27
3.4724631e-22
1.1709132e-21
1.4990459e-21
-4.7562214e-27
2.4299558e-22
1.4084953e-22
-8.5356853e-25
8.3030433e-25
-3.3475331e-28
-1.1527418e-23
2.4819804e-24
1.1280827e-23
-3.0064171e-28
-4.080613e-22
8.3316919e-22
2.7503893e-22
-3.6699727e-28
7.1977168e-22
1.095839e-21
9.243823e-33
-3.9205987e-31
5.7359641e-30
1.2254069e-28
-8.0054095e-31
1.9129122e-30
2.4549504e-22
5.7785525e-22
6.4566127e-22
3.2813052e-24
3.8756987e-22
1.1218657e-22
8.7669807e-25
4.4668208e-24
-4.2413914e-28
-9.0493453e-23
5.1249736e-23
5.0515699e-23
8.7079925e-24
-1.7180366e-22
7.0465868e-22
2.6330223e-22
-1.0844139e-27
2.3771473e-22
3.7046544e-22
2.0828245e-32
-1.1075895e-27
2.2762692e-29
3.1497396e-27
-3.2456226e-27
9.5103286e-29
1.4882943e-22
2.7637266e-22
3.20251e-22
3.4829912e-23
4.3273426e-22
1.4516209e-22
2.5385545e-23
3.1358873e-23
3.8331432e-24
-1.3763479e-22
1.0607675e-22
8.3431939e-23
2.323176e-23
-8.394594e-23
4.7415494e-22
2.1185135e-22
-3.5545629e-27
6.0319073e-23
1.3754734e-22
-3.6489781e-30
-4.9505974e-27
5.2176385e-26
2.9366493e-26
-2.4089342e-26
2.0588452e-25
8.1574961e-23
1.112345e-22
1.8111421e-22
7.6917418e-23
3.6939332e-22
1.4338699e-22
7.2771065e-23
5.3307105e-23
1.7385095e-23
-1.0207967e-22
8.5162602e-23
2.1232102e-23
1.2626047e-22
-1.5531092e-23
1.4215843e-22
2.7197264e-22
2.3283874e-25
4.5220794e-23
1.4129107e-23
-2.0762361e-28
5.2091557e-25
1.8856665e-26
-1.0025275e-24
1.8211786e-24
7.0924784e-26
2.6154865e-23
8.6936886e-23
2.8150585e-23
8.8342052e-23
1.2260824e-22
2.5078903e-22
8.4899663e-23
1.9958241e-23
1.1281976e-22
8.4676782e-18
-7.543745e-18
3.6758057e-18
7.3256532e-18
1.0094739e-20
4.4370708e-20
8.4132128e-18
-4.9524599e-19
2.3480117e-21
6.2970233e-19
1.6474819e-21
-2.5840216e-23
1.1662226e-18
4.5287205e-19
-5.2174999e-22
1.0677665e-18
-1.2022778e-20
1.9130644e-21
4.8799115e-19
-9.8268795e-18
5.2110549e-20
9.7627462e-18
-8.9010851e-18
4.2123698e-18
8.5553541e-18
9.0114566e-18
-2.7303566e-18
3.3374054e-18
-1.2234367e-17
5.0994239e-20
2.3005327e-19
8.7776477e-18
-1.1827539e-22
1.6762572e-21
1.3157726e-19
2.6265859e-25
-4.2400849e-24
2.9319338e-22
2.0647198e-24
-2.4242359e-25
3.23978e-24
-6.796794e-20
1.2014727e-21
8.5476433e-20
-1.1560169e-17
2.7236946e-19
1.1276246e-17
-3.5366881e-18
4.3560678e-18
-1.536951e-17
1.8333485e-19
-9.1961458e-20
1.472461e-19
-2.9654907e-18
-2.1281662e-23
2.0763655e-20
3.9282211e-19
-4.643675e-26
3.4903132e-22
2.0615332e-20
3.0496914e-29
-6.1493224e-27
5.4654738e-26
2.1229274e-26
-8.6657766e-27
5.3626106e-26
5.944107e-24
1.115894e-22
6.4249916e-21
-1.9394238e-19
2.7016177e-20
4.3936703e-19
-9.9952927e-20
9.2360066e-20
-3.7186162e-18
1.3156714e-20
-9.014331e-24
4.3529944e-20
-1.486343e-19
-3.0587202e-23
1.8756517e-21
3.2518411e-20
-8.0779865e-27
9.5693299e-23
3.9971922e-21
1.2724242e-29
-4.0537991e-26
2.3403743e-26
1.6199883e-26
-7.1731597e-26
4.2489828e-26
1.2430563e-23
3.183792e-23
1.567099e-21
-1.1495545e-20
2.2733425e-21
3.641624e-20
-9.6979964e-24
3.8585077e-20
-1.500146e-19
-1.8604485e-23
-1.11561e-23
2.9820479e-22
-2.629985e-22
-1.2200639e-23
2.126761e-22
1.9089641e-21
-1.0160485e-25
1.7654896e-23
1.1616161e-21
1.7538769e-28
-4.160827e-25
5.1260752e-25
2.2700349e-25
-8.0747617e-25
8.9693188e-25
8.3032248e-24
1.0504085e-23
6.5919364e-22
1.6091679e-23
1.4929253e-22
2.2721279e-21
-1.0880762e-23
2.3006725e-22
-2.0646976e-22
-2.8278796e-23
1.2121782e-23
3.5530131e-23
7.9243363e-24
-3.5785915e-23
1.3794641e-22
3.3592073e-22
-3.4343743e-25
5.485705e-23
1.122532e-22
2.8323866e-28
-1.6524334e-24
1.9071982e-24
9.0787122e-25
-3.2237316e-24
3.7627962e-24
2.9776439e-23
5.5154062e-23
1.0303518e-22
2.2888661e-23
1.262633e-22
1.763948e-22
1.0030912e-23
4.3639193e-23
6.88083e-24
-5.2747195e-23
5.7793836e-23
5.7984137e-23
2.666061e-23
-5.4013957e-23
1.8346901e-22
9.9799379e-23
-4.7532131e-25
3.4195567e-23
9.6990096e-23
-1.3392062e-27
-2.6869735e-24
2.8996434e-24
1.36457e-24
-5.6985501e-24
6.2100797e-24
7.6370426e-23
5.0221355e-23
1.3310202e-22
4.4338136e-23
1.8727111e-22
6.8639714e-23
4.9271007e-23
5.1834209e-23
3.1199867e-23
-7.5653743e-23
7.5360276e-23
4.2737839e-23
1.0418263e-22
-3.1526658e-23
8.5610798e-23
1.7007315e-22
2.6442075e-24
7.058484e-23
-2.0729446e-25
-3.539553e-27
3.0655487e-24
-2.5847545e-28
-6.6086502e-24
6.962651e-24
-5.0417002e-27
4.868117e-23
1.3277751e-22
-2.3996331e-25
8.2182592e-23
9.2860203e-23
1.8956665e-22
8.2210515e-23
4.62806e-23
1.1418326e-22
4.1057877e-18
-2.7295748e-19
2.0390137e-20
0
9.8723085e-15
6.294896e-15
1.7267373e-14
0
2.2301319e-14
5.8973449e-14
1.9580497e-22
0
2.6260357e-19
0
0
2.2320648e-19
-8.4916772e-15
1.8859442e-14
4.9408947e-14
-4.3830213e-18
5.3567677e-15
1.4680335e-14
-1.0307938e-19
1.2314241e-20
0
2.2549743e-17
-4.6294803e-19
1.7303013e-19
-1.9070225e-17
5.3276371e-15
8.2720877e-16
4.4863078e-15
0
5.0960368e-15
5.549693e-14
0
0
1.5879154e-20
0
0
9.0595058e-22
-4.2249393e-15
5.7255979e-15
4.8274225e-14
-8.763833e-18
3.2699643e-16
3.7176303e-15
-3.6789887e-19
6.4821302e-20
-4.1344716e-18
9.4121335e-18
-1.4756216e-19
1.8942251e-19
-9.7229311e-18
-4.1792628e-17
1.8405753e-16
6.9486233e-16
-8.1201176e-27
1.0905266e-16
4.9453243e-15
4.3328851e-29
-5.9013202e-25
7.8737621e-26
9.9171387e-27
-1.6334833e-25
7.4878652e-26
3.1231866e-17
1.1439456e-16
5.5800667e-15
-1.1160951e-17
1.0347852e-16
2.664213e-16
-1.8430666e-18
1.8734346e-19
-9.668033e-18
2.9142717e-19
-4.9824508e-21
1.0302582e-19
-4.7718659e-19
-4.6345459e-18
5.7875841e-18
1.8309212e-16
-1.6463335e-25
3.1903047e-18
1.0123522e-16
8.630093e-28
-1.7633753e-24
2.4687315e-24
2.0272634e-25
-3.0794947e-24
2.6733011e-24
3.8729936e-18
4.7304038e-18
1.0579666e-16
-8.6469055e-19
1.0646965e-17
9.7921771e-17
-2.5728884e-21
1.4808969e-18
-2.5836549e-18
-1.9782511e-19
-7.2088496e-22
1.9817088e-19
-4.1475689e-21
-2.5377874e-19
7.3352121e-19
4.9891288e-18
-2.054138e-25
5.7432883e-20
2.8570154e-18
3.9612302e-28
-2.8583181e-24
3.3666272e-24
8.7406886e-25
-7.442457e-24
6.4553843e-24
2.0711465e-19
8.3103753e-20
4.4408891e-18
1.2000469e-19
8.4864886e-19
9.8952095e-18
-1.074112e-21
1.1644151e-19
0
-4.5612004e-20
8.2111852e-23
4.4642632e-20
2.2788631e-22
-1.0050425e-20
5.5683994e-20
6.4255593e-19
-1.8185641e-25
2.5619563e-22
4.7152154e-20
-9.9304265e-28
-3.8098022e-24
4.1106958e-24
7.0616945e-25
-8.0356339e-24
6.8044536e-24
8.5676953e-21
1.7428127e-22
7.4490707e-20
1.8836938e-20
7.4967605e-20
7.7409307e-19
4.414508e-23
1.4992444e-20
3.3802354e-22
-5.8432305e-21
1.0146971e-22
5.8362983e-21
5.4582423e-23
-1.6750354e-22
1.3217596e-20
4.5345154e-20
-5.5513115e-25
-1.1476219e-24
1.8566271e-22
-3.9445268e-27
-3.0308299e-24
2.912159e-24
1.6867968e-24
-7.3864415e-24
6.2161857e-24
1.5843898e-22
-1.2216278e-24
1.5622073e-22
2.3108623e-21
2.9486037e-21
6.9936578e-20
1.4131778e-22
1.1888929e-21
4.0955823e-23
-5.3278489e-22
6.9351908e-22
2.6710217e-24
1.7698296e-23
-3.3062857e-23
1.1855922e-20
9.6575238e-22
1.1694257e-24
4.233461e-23
-4.1694848e-25
-3.6014217e-27
2.2587893e-24
-4.7362775e-28
-2.8294683e-24
4.4878214e-24
-5.0133815e-26
6.1106094e-23
7.0902211e-23
-1.8270341e-24
2.7567591e-22
2.4484276e-21
3.5656097e-22
6.1664835e-23
2.0712181e-23
5.7326645e-23
2.0272248e-19
-6.631209e-20
1.177516e-20
3.1570306e-20
1.1651862e-14
3.1206613e-14
3.4239326e-14
-1.8959015e-20
5.7711162e-14
6.40985e-14
3.9315513e-23
-2.6434761e-21
3.2368351e-20
1.4753555e-20
-2.0603705e-24
2.5228165e-20
-1.0070319e-14
4.846687e-14
5.321784e-14
-9.6666093e-20
2.5773605e-14
2.9213102e-14
-1.5762576e-20
2.7075137e-21
4.8651616e-21
9.5952838e-19
-1.5005262e-19
3.6350684e-20
-5.3231966e-19
2.9442936e-14
0
7.45055e-15
0
6.5475812e-14
1.7024245e-13
8.8691913e-24
0
1.3477109e-20
9.0222961e-22
-4.965167e-26
1.0571444e-23
-2.8293477e-14
5.24051e-14
1.4115392e-13
-1.9111247e-19
0
6.5447846e-15
-5.4444015e-20
8.5972606e-21
-3.1380496e-20
2.4419473e-18
-1.2104077e-19
1.4514434e-19
-2.2694962e-18
-1.1225335e-14
3.8645505e-15
1.0365555e-14
0
4.2140263e-15
1.1972334e-13
3.5245119e-29
-4.2661451e-26
6.4805995e-26
0
-8.7528054e-26
8.0138956e-26
1.1783451e-14
5.628406e-15
1.219951e-13
-5.9738235e-19
1.1071082e-14
7.5417891e-15
-1.5286789e-19
3.0762688e-19
-5.4878529e-19
8.9405756e-20
-1.7036703e-18
1.7080397e-18
-6.4888214e-20
-3.5154598e-16
3.3911663e-16
4.0485235e-15
-8.0098957e-26
2.0373485e-16
3.7631881e-15
3.4714035e-28
-4.2405527e-24
3.5289551e-24
1.2071547e-25
-5.7474034e-24
4.5680746e-24
1.0463574e-15
1.9760801e-16
4.4940335e-15
-6.1392108e-20
6.40994e-16
1.1574681e-14
-4.6330896e-19
3.6117002e-18
-1.825403e-18
-5.4015076e-17
-2.3918087e-19
5.2751106e-17
-3.4038004e-22
-3.4310323e-17
5.7397701e-17
2.67552e-16
-1.6127024e-24
2.8261217e-18
1.6961558e-16
-1.7631068e-27
-3.6564719e-23
1.5267213e-23
1.8382844e-24
-7.3137462e-24
8.1935135e-24
4.0799982e-17
4.9024557e-18
1.5649576e-16
1.0541968e-17
6.2066751e-17
6.2156053e-16
-6.8428855e-20
1.0284641e-17
-8.6533712e-21
-1.2012232e-17
-2.5115351e-21
1.1735108e-17
8.9179078e-20
-1.132453e-19
7.8314378e-18
4.0475609e-17
-5.5630669e-24
1.8270178e-20
2.7609613e-18
-3.3654205e-27
-8.8410659e-23
4.5396732e-23
4.1381277e-25
-5.4481542e-24
5.0196407e-24
1.3435282e-18
3.4195681e-20
3.321781e-18
3.1788855e-18
1.1035023e-17
5.0057509e-17
-1.0727499e-21
3.1051066e-18
2.3239639e-20
-1.485099e-18
2.6990795e-20
1.4365522e-18
2.5343934e-20
-1.2850066e-21
3.5825996e-18
2.8212662e-18
-2.6489938e-23
-1.0491079e-21
1.9963018e-20
-4.0559291e-27
-1.5176726e-22
7.0412331e-23
3.8283456e-25
-2.7249421e-24
3.3036337e-24
1.0271307e-20
-6.7918316e-23
2.4149019e-20
3.9777388e-19
9.0027871e-19
9.8282136e-18
6.3704625e-21
3.8852034e-19
6.8758805e-21
-1.4058381e-19
1.5754915e-19
3.7928843e-21
6.4119734e-21
-3.1825412e-21
3.2345692e-18
2.2357401e-19
9.5352345e-23
3.6194243e-21
-4.9296266e-21
-4.3628406e-27
1.1279027e-22
-1.274738e-22
-4.7649479e-26
1.6593391e-24
-5.2143374e-27
1.5119291e-24
3.6396147e-24
-2.2725095e-24
3.8108018e-20
8.0794779e-19
6.1845383e-20
5.5272001e-20
1.3537545e-21
2.3008865e-21
2.6519738e-14
-5.6906707e-17
2.7408934e-15
8.8600899e-15
3.0535433e-15
6.8912243e-15
0
-3.2274823e-20
5.2178312e-14
3.6831674e-15
1.162716e-25
-3.4805871e-23
1.2563103e-22
2.5130825e-20
-3.0688922e-26
9.7437957e-23
-6.1962496e-15
4.5515073e-14
3.4145653e-15
-1.09769e-14
1.2086465e-14
3.9323168e-15
-9.7028706e-17
1.0298394e-16
2.7663173e-16
2.3076795e-16
-6.4659472e-16
3.7876966e-16
-1.9660242e-17
4.8279083e-14
1.1885214e-14
2.3873546e-14
-1.3284082e-20
3.9508327e-14
5.6674507e-14
6.3951496e-26
-2.3542943e-26
1.5814865e-22
1.0488284e-23
-2.6404155e-26
1.4014369e-25
-2.3181335e-14
3.0864314e-14
4.160544e-14
-3.0807149e-16
1.9602278e-15
2.0152391e-15
-1.4104698e-14
1.3745529e-14
-4.5849127e-17
1.0473503e-14
-1.281151e-14
1.6970461e-15
-5.3107839e-18
-2.0791047e-14
3.0945467e-14
2.9621127e-14
0
1.0064029e-14
1.201772e-13
1.3285304e-31
-4.5261921e-26
4.7793137e-26
0
-1.598562e-27
5.3796462e-26
2.2739604e-14
2.0234264e-14
1.0286798e-13
-9.7537644e-15
4.1976124e-14
7.371439e-15
-2.8465123e-14
1.0692097e-14
0
5.3340389e-15
-2.5339256e-14
6.4144473e-14
-4.551799e-15
-2.2359783e-14
5.2769663e-15
2.2078324e-14
0
2.9632134e-15
5.4920491e-14
-4.0303674e-28
-5.1677738e-25
1.4974824e-24
0
-6.2157737e-25
1.8179106e-24
2.2586539e-14
0
6.296494e-14
-1.5996467e-14
4.9913065e-14
3.6318792e-14
-3.7345283e-15
1.6076391e-14
-5.1319171e-19
-6.3977746e-16
-1.2748339e-14
6.5864105e-14
-1.5163585e-15
-5.4373782e-16
2.2973343e-15
3.2031495e-15
-2.351522e-25
1.1220692e-16
2.4816366e-15
-6.216855e-28
-1.4272949e-23
6.1304071e-24
0
-7.1031822e-24
1.1085879e-23
4.6922122e-16
1.1147018e-16
5.6692066e-15
6.7972103e-15
8.1667062e-15
1.7376109e-14
-4.90072e-17
3.5124279e-15
-3.8970067e-16
-9.3486309e-16
-5.1005019e-16
3.9246529e-14
5.1887557e-15
-8.5215003e-17
4.1101351e-16
1.1377488e-15
-4.5931122e-24
1.9423897e-18
2.9159315e-17
-6.6356338e-27
-1.6919179e-23
4.0976354e-24
1.2417926e-25
-8.1865674e-24
6.8028279e-24
6.6943784e-18
7.3790155e-19
1.0636686e-16
1.6693235e-15
4.6897149e-15
1.8711277e-15
-9.219741e-19
1.6236543e-15
9.0451257e-19
-1.4083872e-16
4.0677538e-14
6.8767397e-14
2.2834276e-14
-1.7781141e-18
2.5658463e-16
1.8581798e-17
-2.1532848e-24
-9.6520543e-23
1.8430275e-19
-6.8159995e-27
-4.1992e-23
1.3799233e-23
4.7633798e-23
-5.7757869e-23
5.280208e-24
1.8582259e-19
-4.3576333e-21
5.8063439e-19
2.2138714e-16
4.8135428e-16
3.9990787e-15
3.7008028e-18
2.1718403e-16
0
-6.9718085e-14
8.116566e-14
3.2894621e-14
7.2757098e-14
-9.1877017e-21
2.8499096e-14
5.6053159e-14
7.6440999e-25
4.6411199e-22
-6.0866833e-21
-4.790513e-26
8.0690205e-23
-8.2765792e-23
-2.0192769e-24
5.5593649e-23
-1.1023107e-22
8.7773991e-23
1.1769766e-22
-4.5516988e-21
2.1723631e-17
4.4501255e-16
1.5427008e-17
2.1625041e-17
2.2281486e-18
1.6240753e-18
0
-6.6170328e-13
1.6429616e-15
6.6729185e-13
7.1094025e-17
3.5355569e-15
2.0709356e-16
-4.5804421e-25
4.5665603e-16
4.2857844e-16
4.4298578e-28
-4.4935641e-25
1.2409871e-22
2.5938495e-25
-3.8995965e-27
9.7180128e-23
-2.3958181e-17
3.7153814e-16
4.019363e-16
-4.1917511e-15
6.2854124e-15
1.0933007e-16
-1.9082518e-12
5.6061414e-15
1.9100716e-12
5.1104918e-14
0
5.870878e-13
-2.2258858e-12
2.0212737e-17
6.6537757e-14
1.4546908e-14
-1.557903e-22
2.4737559e-14
3.4740908e-15
3.1320227e-28
-1.3861654e-26
1.9198564e-24
1.318004e-25
-1.3496175e-26
1.6727201e-26
0
1.5778398e-14
3.5800573e-15
-6.6699886e-13
2.572853e-13
4.4958501e-14
-1.9219183e-12
1.4801727e-12
-3.0741242e-12
3.301373e-14
-2.1133002e-13
1.0541588e-13
0
-1.4469e-14
1.7052909e-13
3.2729008e-14
-2.1406759e-25
5.5720196e-14
5.3641675e-15
-9.1148966e-30
-2.0654587e-25
2.6710439e-26
1.9175156e-25
-1.778932e-25
2.5938567e-26
1.0468821e-14
3.3596262e-14
8.852886e-15
-9.0500076e-14
7.50915e-14
7.3351904e-14
-1.3102933e-13
5.1707247e-14
-1.9148016e-12
3.9136174e-14
-3.6479664e-13
1.9571459e-13
-1.1736198e-14
-5.0462792e-14
1.1065659e-13
6.1892291e-14
-1.3296243e-25
6.0685279e-14
5.7352735e-14
-1.6817116e-28
-1.6979502e-24
2.2291251e-25
6.4997799e-24
-5.0554025e-24
1.9226266e-25
3.6782243e-14
6.0316937e-14
5.9293209e-14
-9.5006056e-16
0
4.3056203e-14
-1.7312055e-14
1.9920959e-14
-7.2749719e-14
0
-1.8627743e-13
1.3516075e-13
-8.8269672e-15
-2.6812479e-14
1.9105006e-14
6.064207e-14
0
1.6407188e-15
3.7280835e-14
-1.9729253e-27
-1.6795544e-24
1.2886462e-24
0
-3.586517e-24
1.3804319e-24
2.0846807e-14
4.8909053e-15
3.4596449e-14
5.597294e-15
4.9088487e-14
7.6894924e-15
-2.2281723e-14
6.450717e-14
-1.6353515e-16
0
-2.3648924e-14
7.0897543e-14
0
-6.1221175e-16
3.5247754e-14
4.0600383e-14
-1.3005763e-26
4.3086309e-17
5.7130799e-16
-3.5363648e-27
-4.1103205e-24
1.9416408e-24
4.6080301e-25
-2.7697205e-24
2.857526e-24
4.5830667e-15
4.8553877e-17
3.9883961e-16
3.8132323e-14
1.7676778e-13
1.5026838e-14
-9.2370703e-15
5.3110952e-14
1.5295906e-14
-7.773518e-14
3.6346272e-14
1.0433399e-13
5.019244e-14
-4.2438439e-17
9.5595572e-14
1.8456719e-14
-1.4160658e-22
-2.335531e-21
8.3465895e-19
-9.5669919e-26
-1.4324945e-22
7.8971184e-24
1.2191003e-21
-1.2722769e-21
5.1721999e-23
4.7362408e-17
-7.9719731e-20
1.8531249e-18
9.2866947e-14
1.1676241e-13
6.078875e-14
2.7533856e-14
6.4512781e-14
2.9182976e-14
-9.2070513e-14
1.0196587e-13
7.2836851e-14
9.4982506e-14
-1.1250588e-19
3.5475189e-14
1.2663004e-13
1.6527795e-23
5.1603706e-21
-1.1940491e-19
-2.2821662e-25
5.254924e-23
-8.7616845e-23
-1.0746878e-21
4.8190809e-22
-6.696832e-22
1.9581683e-18
1.7808288e-19
-1.4900269e-19
3.6858151e-14
6.3694209e-14
2.1834754e-14
4.6000193e-14
2.3193229e-14
6.2211958e-15
4.1388655e-15
-2.5106195e-12
5.2769862e-15
2.5061531e-12
1.2144316e-16
6.0395833e-15
3.5903587e-16
-8.0436857e-14
3.6748769e-16
8.2019065e-14
4.1619564e-17
-1.8731194e-24
4.2033175e-13
8.0343306e-14
-7.2296644e-27
4.2038943e-13
-8.5979253e-17
3.6121668e-16
8.1479029e-14
-4.8910261e-15
3.6985973e-15
2.5980227e-16
-2.1472042e-12
4.216851e-15
2.1496294e-12
2.3553821e-13
0
2.1750681e-12
-2.8325567e-12
2.9776034e-14
1.5857229e-13
6.9110164e-14
-1.8565734e-26
3.3287447e-16
3.3284738e-14
-1.6009432e-30
-1.2805577e-26
3.9452042e-26
7.4689711e-27
-1.3195633e-26
1.5757748e-26
-2.6589525e-14
5.2002337e-16
3.0013668e-14
-1.522358e-13
1.3227274e-13
4.2998259e-14
0
1.3190198e-12
-2.4612441e-12
4.2562e-14
-3.0936655e-13
4.9451042e-13
0
-2.0163409e-15
6.2336211e-14
1.8364454e-13
-2.789959e-26
2.0112305e-14
1.8864599e-15
-1.6601615e-29
-3.8267721e-26
2.4014372e-26
3.0689486e-26
-4.324752e-26
2.388892e-26
1.8766747e-15
7.0369329e-15
5.6031576e-16
0
9.9458217e-14
3.0069593e-14
-3.5774415e-14
3.1413047e-13
-2.4306519e-13
5.787524e-14
-3.2710535e-13
2.6370797e-13
0
-2.2503376e-14
1.1852706e-13
8.9815339e-14
-4.0810328e-25
1.7305274e-14
1.4978506e-14
-5.7352771e-29
-2.6407338e-25
4.0781003e-26
6.6286618e-25
-5.5880391e-25
4.686873e-26
1.4538849e-14
1.3442176e-14
1.976701e-14
-2.1425466e-14
2.0195464e-14
1.9042238e-13
-1.1011746e-13
8.74498e-14
0
-2.0267779e-14
-1.3187215e-13
9.6373268e-14
0
-2.1042666e-14
3.5230589e-13
2.3543897e-13
-4.8343734e-24
0
3.7021002e-15
-6.5431219e-28
-4.0265788e-24
1.9823237e-25
0
-1.6753397e-26
4.1973903e-25
1.241266e-14
5.0241887e-16
6.7160927e-15
0
5.6865752e-15
4.6235257e-14
-9.2422593e-14
7.9514943e-14
-5.2298437e-16
-5.4778459e-14
-4.2858828e-15
4.3522395e-14
0
-2.1622406e-14
1.4215231e-13
1.3011862e-13
-5.9308934e-23
3.6430331e-18
1.5131883e-15
-1.0296239e-26
-6.3580885e-23
2.4336366e-24
0
-1.7101224e-24
5.0502417e-24
5.9442022e-16
9.9383853e-18
1.8856606e-16
6.6428876e-15
1.0991972e-14
3.4961492e-15
-7.7498383e-15
3.9672045e-14
1.8200808e-14
-9.2461938e-14
1.0928036e-13
9.1228966e-14
5.5037188e-14
0
0
3.7657765e-14
-7.2648042e-22
0
1.3356001e-17
-1.3815366e-25
-7.9547388e-22
1.8800436e-23
1.4765214e-21
-1.4546339e-21
3.779713e-23
1.1592826e-17
-3.1499897e-20
2.3177361e-19
4.9534997e-14
2.1654134e-13
1.3144497e-14
3.1467109e-14
4.8414251e-14
6.1629461e-14
-4.0623817e-14
9.0740673e-14
1.0447792e-13
1.0427164e-13
-7.5003978e-19
4.5477183e-15
4.0719666e-15
1.7739637e-22
3.4569399e-20
-7.7896004e-19
-7.7230156e-25
3.009701e-22
-7.9591869e-22
-2.5903687e-22
4.5622554e-22
-1.0157112e-21
1.3605397e-18
6.4117697e-20
-1.2773712e-18
9.2405662e-14
6.0446767e-14
2.3706929e-13
6.170986e-14
5.6070844e-14
8.5414956e-14
1.1257649e-13
-1.6877724e-11
3.8121024e-14
1.6743386e-11
7.2739582e-14
4.268354e-14
8.239989e-16
-4.2261479e-13
2.0520946e-12
1.6611368e-11
-2.1252577e-16
-4.5425615e-26
1.5120466e-12
4.282987e-13
-2.2573094e-26
1.5112441e-12
-6.4078295e-14
2.1136625e-12
1.6609183e-11
-8.2061893e-14
1.7508094e-14
5.5667118e-16
-1.1866965e-11
2.7681215e-14
1.1765566e-11
3.8780003e-12
0
8.6861791e-12
-1.683359e-11
3.2257385e-13
3.3234786e-12
3.533081e-13
0
7.1261439e-14
7.0291928e-12
-8.9236036e-30
-2.334935e-26
1.6633185e-26
0
-2.3863569e-26
1.6300077e-26
-3.2879107e-13
1.5691698e-13
6.9727851e-12
-1.7046382e-12
1.120521e-12
3.1961782e-13
0
8.4952224e-12
-1.2198021e-11
1.0136571e-12
-1.5386115e-12
1.1602351e-12
0
0
7.0465108e-12
1.3845602e-12
-3.8225797e-27
0
7.3148067e-14
-2.810159e-29
-2.7739464e-26
2.5171559e-26
6.8791763e-28
-2.6221961e-26
2.4903713e-26
1.1092163e-14
6.476593e-14
8.1615694e-14
-9.7011124e-13
2.0124174e-12
1.0820544e-13
-7.8947417e-13
9.4699963e-13
0
0
-3.3902898e-13
2.8680323e-13
-1.2007264e-12
-5.8603188e-15
7.6029862e-12
2.5560312e-12
-4.4372001e-25
2.7457484e-15
3.4280653e-15
-7.3633339e-29
-4.7191373e-25
4.3567673e-26
5.0692388e-25
-5.3141998e-25
4.4935481e-26
8.0596268e-14
1.3908087e-15
2.545869e-15
0
5.4612243e-12
3.8136785e-12
-2.3427789e-13
1.8271568e-13
-6.1676363e-13
-3.8423926e-13
-9.1309308e-14
2.7089792e-13
0
0
3.7678969e-13
1.7605969e-12
-9.0368973e-24
1.7471498e-15
7.4338477e-16
-7.6683944e-28
-9.6262058e-24
3.534843e-25
1.0479116e-23
-1.0970099e-23
4.0294294e-25
0
1.1219797e-15
5.0211026e-16
4.5125861e-13
1.4036646e-12
2.6940347e-12
-1.0219186e-13
1.9617561e-13
-5.6999171e-16
-6.9893759e-14
-7.3592494e-15
1.4933333e-14
5.4744146e-16
-5.6590816e-16
3.5757002e-14
9.2270597e-14
-1.3657773e-22
-8.8516465e-18
2.2194767e-15
-1.3913728e-26
-1.4877613e-22
5.7997193e-24
1.5597334e-22
-1.6793404e-22
6.6127185e-24
0
0
1.6756569e-15
9.0021106e-14
0
2.7433047e-13
-5.4321912e-15
2.0283052e-14
3.6883299e-15
-3.0002917e-14
7.4596449e-14
5.7457639e-14
4.5863676e-14
-4.748308e-18
2.5705837e-14
1.7709758e-14
-7.560217e-22
-4.0026691e-20
2.8347701e-18
-1.0844832e-25
-9.2101581e-22
4.4726218e-23
8.4260106e-22
-1.013821e-21
5.0295345e-23
0
-5.8764536e-26
1.2260618e-18
6.5276582e-15
0
2.0242289e-14
2.5980164e-14
1.6620132e-14
2.2840523e-14
-2.5278535e-14
4.4057926e-14
1.5214166e-13
1.1063315e-13
-1.360395e-18
2.0716024e-15
2.9048315e-15
1.5931424e-22
6.6794324e-20
-1.4313234e-18
-1.2469124e-24
6.4639635e-22
-7.9585436e-22
-2.2381757e-22
6.0524979e-22
-1.0114539e-21
1.5298061e-18
6.4410059e-20
-1.5295225e-18
5.6176796e-14
1.2846034e-14
3.4264375e-14
7.3375525e-15
2.5217604e-14
6.9354284e-14
1.5881259e-13
-1.8617654e-11
4.1420853e-14
1.8475233e-11
1.5913044e-13
1.0267138e-14
1.13535e-15
-6.353647e-13
9.258625e-12
5.1366414e-11
-2.1191008e-15
-2.4282559e-26
1.8677902e-12
6.1932305e-13
-2.4230002e-26
1.8572108e-12
-1.830039e-13
9.3076155e-12
5.1499698e-11
-1.947347e-13
1.5329143e-14
1.0418264e-15
-2.2170736e-11
5.026208e-14
2.196727e-11
4.4103503e-12
-6.7461787e-12
7.7647302e-12
-1.5822372e-11
2.1039065e-12
2.2745737e-12
4.1442288e-13
0
8.1877088e-13
4.242006e-11
-2.3206832e-29
-2.465939e-26
1.6761697e-26
0
-2.5509727e-26
1.673058e-26
-2.1827119e-12
1.0478547e-12
4.285226e-11
-5.3741177e-12
3.0447718e-12
4.9482458e-13
-6.297748e-12
1.0029804e-11
-2.0075761e-11
2.2847424e-13
-3.7593898e-12
3.2160801e-12
-4.5544267e-12
-6.1439393e-14
4.8694667e-12
4.6735525e-13
-1.2161876e-27
2.6858118e-13
5.6200857e-13
-4.7342194e-29
-2.7235315e-26
2.6427414e-26
6.4515039e-28
-2.8699204e-26
2.8523019e-26
6.6817285e-14
4.7498453e-13
5.8772207e-13
-1.2271045e-12
1.4799751e-11
1.5811022e-12
-2.5570163e-12
1.3662429e-12
-6.3079449e-12
0
-8.1180549e-13
4.3098664e-13
-2.9011014e-12
-2.7684376e-13
5.2805598e-12
2.5139361e-12
-1.4002499e-24
1.0326049e-15
2.7384939e-14
-3.8440382e-28
-1.4340581e-24
5.3545092e-26
5.0212696e-24
-5.1555578e-24
1.7636839e-25
4.581648e-13
1.0842192e-15
1.8881838e-14
0
4.6212705e-12
4.3437099e-12
-6.0675324e-13
4.0354141e-13
-1.8528419e-12
-5.4307773e-13
-1.9551753e-13
3.5009089e-13
0
0
1.9366744e-12
1.9013662e-12
-2.7882299e-23
4.2296356e-16
7.5218912e-16
-9.0313545e-27
-2.9885901e-23
1.0405345e-24
1.0467761e-22