/*--------------------------------*- C++ -*----------------------------------*\
  =========                 |
  \\      /  F ield         | OpenFOAM: The Open Source CFD Toolbox
   \\    /   O peration     | Website:  https://openfoam.org
    \\  /    A nd           | Version:  13
     \\/     M anipulation  |
\*---------------------------------------------------------------------------*/
FoamFile
{
    format      ascii;
    class       volScalarField;
    location    "0.11";
    object      alpha.water;
}
// * * * * * * * * * * * * * * * * * * * * * * * * * * * * * * * * * * * * * //

dimensions      [];

internalField   nonuniform List<scalar> 
51200
(
-5.4592938e-54
-5.6248155e-54
-6.0696597e-54
-1.9899478e-66
-3.8664063e-68
-5.2820263e-69
-4.6532902e-72
-4.6674567e-72
-9.4653267e-52
-3.697203e-52
-7.4020044e-53
-1.9899242e-66
-3.8688055e-68
-1.2987672e-55
-6.8978515e-55
-1.7710465e-54
-1.7725915e-51
-6.8221669e-52
-1.1615883e-52
-1.9899087e-66
-3.8931234e-68
-2.1087911e-55
-1.2827398e-54
-3.3341395e-54
-2.3150809e-51
-8.767335e-52
-1.2520942e-52
-1.9898696e-66
-3.9390176e-68
-2.286639e-55
-1.6519065e-54
-4.362269e-54
-2.6491559e-51
-9.3371406e-52
-1.2429449e-52
-1.989796e-66
-3.9918269e-68
-2.2709376e-55
-1.7599222e-54
-4.9966595e-54
-2.6819938e-51
-9.1825376e-52
-1.2246641e-52
-1.9896695e-66
-4.040601e-68
-2.2360734e-55
-1.7311558e-54
-5.0567609e-54
-2.4731583e-51
-8.9097551e-52
-1.2192233e-52
-1.078842e-54
-2.006949e-57
-2.2244785e-55
-1.6795527e-54
-4.6590513e-54
-2.2320941e-51
-8.7979637e-52
-1.220565e-52
-1.1767583e-53
-2.1551684e-56
-2.2252462e-55
-1.6574363e-54
-4.2007909e-54
-3.5809856e-33
-3.0525445e-33
-1.4237732e-33
-9.504942e-38
-2.8882013e-39
-2.9703888e-38
-1.0787524e-37
-1.6542795e-37
-3.1380312e-33
-2.1089275e-33
-7.9251666e-34
-1.9782826e-38
-6.0951341e-40
-2.8569244e-38
-1.0753915e-37
-1.8417151e-37
-1.4728438e-33
-1.3041384e-33
-3.948556e-34
-5.8781633e-39
-1.8444371e-40
-1.4347785e-38
-6.8010524e-38
-8.5628525e-38
-6.4771941e-34
-8.4496595e-34
-2.1302558e-34
-1.9490567e-39
-6.2442747e-41
-7.5387818e-39
-4.3720821e-38
-3.711865e-38
-2.0646812e-34
-5.8326932e-34
-1.2434112e-34
-6.7224938e-40
-2.1961494e-41
-4.3054566e-39
-2.9756969e-38
-1.1504317e-38
-1.3922237e-34
-4.1012264e-34
-7.5747279e-35
-2.3476595e-40
-7.7909434e-42
-2.571886e-39
-2.0645341e-38
-7.0948655e-39
-1.2259525e-34
-2.9224969e-34
-4.7028464e-35
-8.1280815e-41
-2.7124676e-42
-1.5666459e-39
-1.4530459e-38
-6.0570984e-39
-1.060487e-34
-2.1278813e-34
-2.936632e-35
-1.599066e-36
-8.9720043e-41
-9.5853071e-40
-1.04642e-38
-5.1664389e-39
3.0120135e-29
1.5395185e-32
2.3068269e-10
1.055175e-09
1.8275801e-10
3.9589934e-11
4.094085e-32
4.6971518e-32
4.6072694e-28
2.8272577e-23
5.1803743e-11
1.8767596e-12
5.3569765e-13
1.065641e-11
1.7861925e-23
2.8916702e-27
3.7930557e-22
2.2011105e-16
8.6899126e-12
3.3966725e-23
9.1526919e-26
2.4770528e-12
1.2605162e-16
2.5245892e-22
8.5888448e-19
8.7267002e-14
1.8691569e-12
1.2719459e-29
1.1545323e-34
7.8058708e-13
2.9307239e-14
1.5066091e-19
3.2095523e-15
1.3608721e-13
5.0604347e-13
4.855936e-37
0
3.1186073e-13
5.5348757e-14
1.1875071e-15
2.4645284e-14
1.1836681e-13
1.6004858e-13
1.8099404e-33
0
1.4125293e-13
6.5461649e-14
1.0876985e-14
3.8219571e-14
8.8517395e-14
5.473382e-14
1.0525871e-17
4.1775177e-17
7.3771884e-14
6.0053969e-14
2.1865638e-14
3.6382018e-14
5.5712892e-14
9.8547104e-15
9.3884377e-17
3.575131e-16
1.9841047e-14
4.8538673e-14
2.8354105e-14
2.0451998e-08
5.368494e-18
7.8699692e-13
4.0059432e-09
3.6700591e-09
5.6026944e-13
5.4454689e-18
2.3369996e-08
5.4288183e-09
3.0892425e-13
1.0732959e-13
3.3647493e-13
3.8595441e-17
3.7172576e-15
8.7718029e-13
7.1058253e-09
4.8448777e-13
1.9450182e-15
3.8623801e-16
5.1018348e-18
2.7312075e-17
1.9722692e-16
1.9010136e-15
1.1740702e-12
9.7617504e-16
2.876331e-14
4.3277289e-16
8.0164764e-18
1.2616937e-17
1.4933782e-16
1.2558858e-14
9.9564974e-16
1.9035881e-15
1.5511693e-14
1.9028101e-16
1.4890912e-16
2.530157e-16
1.5564425e-16
5.5852102e-15
7.2601409e-16
2.029799e-14
1.9575326e-14
2.8612194e-14
5.9708456e-16
1.0848204e-15
2.3918746e-14
1.6673163e-14
1.8022739e-14
3.0266679e-14
2.9142729e-14
4.3553205e-14
1.2513799e-15
2.425418e-15
6.1780168e-14
2.8196268e-14
2.442193e-14
3.689148e-14
3.733985e-14
2.8910993e-14
1.2235996e-15
2.801729e-15
5.4614517e-14
4.1381019e-14
4.0489555e-14
7.2329119e-11
3.156368e-05
0.00021183434
9.4806111e-10
8.0658638e-10
0.00017787563
2.6158367e-05
1.737755e-11
5.999475e-11
3.9307137e-06
2.4517307e-05
1.9182597e-11
1.0951948e-12
2.098742e-05
2.8274414e-06
1.6789133e-11
2.4403614e-11
9.3010666e-12
1.2430961e-11
6.1713968e-17
5.1206004e-17
1.0162231e-11
8.3068359e-12
4.4627515e-11
1.9018181e-12
1.902042e-11
5.2194131e-13
1.0965266e-15
1.1157481e-15
3.2723763e-13
1.2568958e-12
7.8786537e-10
4.9311425e-14
1.1148064e-11
6.4695284e-13
1.0946287e-15
3.0078831e-15
4.7611183e-15
3.1859659e-13
1.8083951e-13
3.7012287e-15
2.1563251e-14
1.2132085e-14
1.3482012e-15
3.4461833e-15
1.0121463e-14
2.1427142e-12
2.9362111e-13
2.1770648e-15
1.6300492e-14
1.4132581e-15
1.2652692e-15
2.7581352e-15
2.7855108e-15
1.6225921e-14
2.1733067e-13
1.7770682e-15
2.625932e-15
1.7575802e-14
9.1062396e-16
2.2381071e-15
3.6820486e-14
4.6096664e-15
2.2909138e-14
7.1204594e-11
0.00015527456
0.00023567542
1.1669559e-10
9.1069089e-11
0.00019623162
0.00013004721
1.6809087e-11
6.239333e-11
6.6299196e-06
0.00022697757
1.6364977e-11
5.6727878e-17
0.00019407118
8.5485139e-06
1.4599823e-11
5.005894e-11
3.9959533e-06
6.9183527e-05
3.855551e-17
4.2635304e-17
7.610151e-05
5.5206636e-06
1.6789104e-11
2.5499428e-11
1.137468e-06
7.5387869e-10
2.3242378e-15
3.1180501e-15
4.8650862e-10
4.7839119e-11
1.689527e-11
1.1434875e-12
3.3644147e-10
1.9009139e-11
8.6945858e-15
4.0007032e-15
2.3560709e-11
2.6956688e-10
3.7462263e-12
3.7334783e-13
1.6648679e-11
1.1821301e-11
2.2390993e-14
2.4811577e-15
1.291552e-11
1.3436168e-11
1.9603997e-13
5.2843569e-14
1.5212175e-12
1.6028001e-14
3.0371851e-14
1.4394124e-15
7.5842515e-16
1.212525e-12
6.3339742e-14
8.6952874e-15
1.309884e-13
1.4797896e-12
4.592636e-14
6.3981415e-16
3.5337688e-17
8.0607908e-16
8.6930312e-15
1.8960418e-05
4.2903892e-05
9.862039e-05
1.2052476e-15
9.3061838e-17
8.7094901e-05
5.4445208e-05
1.8001811e-07
7.1182796e-11
3.3353228e-05
0.00017959441
2.9071409e-17
1.8509312e-17
0.00014742073
1.4923825e-06
1.6809087e-11
6.2870344e-11
2.8008763e-05
0.00012104225
1.9699461e-17
1.9854474e-17
0.00011605125
1.7592186e-06
6.4309785e-06
7.6868955e-06
8.1400361e-06
3.5980591e-05
8.2458054e-16
1.0192741e-15
4.2060994e-05
2.9177548e-05
1.2019728e-05
1.6824008e-05
3.4199364e-08
1.2964768e-09
5.437404e-15
6.1806847e-15
9.2326667e-07
1.1276885e-05
1.1353332e-10
1.0142733e-05
3.1335865e-09
4.0349978e-14
4.8374637e-15
3.270566e-15
7.4381831e-11
1.065026e-09
2.5948041e-11
1.5954544e-05
2.9701275e-11
4.6417298e-15
3.1437851e-15
1.0499891e-15
2.199389e-15
7.5855467e-11
3.4458594e-12
3.0688717e-05
7.5689355e-06
2.5398355e-14
5.718843e-15
6.866679e-16
8.0913091e-16
4.1832921e-14
5.1839246e-13
1.9522725e-06
2.0153043e-06
2.640541e-07
6.8170201e-16
1.8509312e-17
2.5543741e-07
5.1568682e-07
2.559321e-07
0.00053790335
1.9268805e-06
2.8197504e-06
1.8509312e-17
1.7622805e-17
2.8163224e-06
1.3746505e-05
0.0029008733
1.3447564e-05
1.936748e-05
3.5475739e-05
1.790077e-17
1.7760387e-17
1.4932796e-05
7.4034895e-05
6.4946391e-06
0.00012096489
2.8620004e-05
3.7909283e-05
1.375523e-16
2.0359864e-17
4.3143761e-05
2.2053831e-05
1.097771e-05
0.00010469504
1.1285113e-05
2.1665465e-05
6.002143e-16
1.9840274e-15
2.005829e-05
2.0312499e-06
1.9682936e-05
5.056352e-05
2.2289831e-06
1.7084956e-08
6.36704e-16
9.4511623e-16
3.480164e-13
5.143355e-06
3.4631214e-05
6.0212973e-05
3.69703e-06
2.0688311e-15
7.7259936e-16
1.5759693e-15
1.2254985e-14
3.3196571e-05
3.5157105e-05
5.9140451e-05
1.7163306e-05
1.5838242e-14
2.109206e-15
9.3269834e-15
3.3617419e-11
1.3745845e-05
2.7187017e-05
1.5063713e-06
1.3460905e-06
2.558161e-07
0.00039269516
0.00039373471
2.3017911e-07
9.0361564e-07
7.2427303e-07
0.0015217686
2.7311171e-07
3.0873093e-17
1.7622805e-17
1.7610559e-17
6.430659e-12
2.5408283e-07
0.0014013822
0.00012806087
1.2414376e-06
1.1651714e-06
1.7751002e-17
1.7622939e-17
2.2614121e-09
1.5263969e-05
2.7818826e-05
0.00021178164
1.1108339e-05
1.9300877e-05
1.790077e-17
1.7762234e-17
1.4954253e-05
6.641903e-07
5.1865818e-05
7.1143598e-05
3.0277845e-05
5.3207909e-06
2.0879625e-17
3.5489805e-17
8.4296954e-06
2.5284621e-07
3.8118496e-05
3.6662409e-05
5.8953083e-05
3.0116168e-07
6.0449531e-17
1.7050675e-16
1.8237214e-09
7.947781e-08
2.9777242e-05
6.0730799e-05
1.6285716e-05
5.4038248e-09
5.7926896e-16
1.2028802e-15
1.4282959e-14
8.8706275e-06
3.5462957e-05
6.0532225e-05
7.5863653e-07
7.7463291e-14
7.0176761e-15
1.5725937e-14
1.5273654e-13
3.26369e-05
3.5417821e-05
2.6903421e-06
1.5152705e-06
0.0171563
0.0030710918
0.0030913532
0.017212684
1.0402275e-06
1.7927821e-06
0.016961239
2.0790287e-06
0.0030854201
1.761312e-17
1.761183e-17
0.0030446221
1.466816e-06
0.011283062
0.00050301023
0.0013760287
1.8192389e-17
1.7693267e-17
1.760934e-17
3.9453483e-11
1.3771666e-05
0.00056685198
0.00016605723
0.0014087015
6.2755847e-07
1.7823424e-17
1.76937e-17
1.7356395e-13
0.001255209
6.5592545e-05
0.00016637984
0.00083824529
1.1534163e-06
2.096133e-17
2.1370324e-17
5.269901e-07
0.00094768949
9.9171639e-05
8.337409e-06
7.9443673e-06
1.0053446e-06
9.3809027e-17
1.0582496e-16
7.6467897e-07
4.163534e-05
1.1691267e-05
3.4951644e-05
1.3063816e-09
2.1949762e-09
1.2798769e-15
1.4666656e-15
2.8966828e-10
1.0720452e-07
1.0759965e-05
2.5694207e-05
1.3636695e-11
1.6801327e-13
3.1761609e-14
2.8896493e-14
1.8163311e-13
6.491923e-06
2.0985358e-05
4.387569e-06
2.6367822e-06
0.083961324
0.0056437231
0.005622624
0.084331241
1.7800067e-06
3.6047678e-06
0.018832742
4.3893164e-06
0.025185975
1.7612025e-17
1.7607731e-17
0.025407547
3.6064295e-06
0.023638929
0.0032159669
0.00043557997
6.0801103e-11
1.7619111e-17
1.7659265e-17
4.8462916e-10
0.00065235159
0.00091111735
0.00021700858
0.0014708805
1.6997178e-06
1.7884298e-17
1.8627558e-17
7.4801578e-08
0.0037054111
0.00018798288
0.00025258115
0.001133567
3.0925582e-08
2.805711e-17
6.6881673e-17
2.2813774e-09
0.0024547008
0.00036541729
8.7366998e-06
6.1679293e-05
2.6641742e-07
2.5286894e-16
9.0074955e-16
7.5073947e-07
0.00058275124
7.5105056e-05
5.1374685e-05
1.2652968e-08
3.4703692e-10
3.704337e-15
1.3796174e-14
1.0535501e-08
1.0131229e-08
1.1043144e-05
2.5465176e-05
1.9610559e-10
4.5223287e-13
1.709995e-13
7.4216108e-13
1.9102239e-11
3.2185143e-08
1.4476736e-06
5.6110968e-06
4.3855725e-06
0.16157274
0.0038338658
0.0037311923
0.16194492
3.6008377e-06
5.4710478e-06
0.01074414
5.6116977e-06
0.083451702
2.9580978e-17
2.9819976e-17
0.084498963
5.470952e-06
0.018904533
0.0038301559
0.00031414757
0.0018532737
2.1816417e-17
2.0445628e-17
0.0023905635
0.0037429287
0.0025603866
0.00031436476
0.0015490685
1.7714352e-06
2.4689788e-17
4.3786432e-17
1.4945379e-06
0.0037690954
9.221153e-05
0.00030836141
0.00086152399
1.1782095e-10
5.8762973e-17
7.6923798e-16
2.7620902e-10
0.0012683825
8.8788199e-05
7.1437268e-06
5.6189076e-06
2.0777775e-09
7.8432538e-16
1.938729e-14
1.5677392e-07
6.4140166e-07
8.2913024e-07
5.0451809e-05
3.7787731e-09
3.2495011e-11
1.357501e-14
1.5757384e-12
5.4549106e-09
2.4786163e-08
1.8383644e-07
1.8454357e-05
2.7236239e-10
2.6531805e-12
4.5613001e-13
4.5795768e-11
3.8199509e-11
9.9395282e-09
1.0744943e-07
6.6743749e-06
5.6110897e-06
0.17525045
0.0022718754
0.002217388
0.17476001
5.4709502e-06
6.8939968e-06
0.0096080802
6.6750835e-06
0.12668319
3.1651595e-17
3.1506488e-17
0.12827829
6.8939754e-06
0.013669519
0.013168506
0.00033133938
0.02272563
2.8329495e-17
3.1176549e-17
0.023959442
0.00070501601
0.013823004
0.0002052765
0.0036755435
7.9918542e-09
3.3211574e-17
1.2951481e-16
2.083227e-07
0.002135114
0.00027070348
0.00019292345
0.001803339
8.1402448e-10
9.8401602e-17
1.5033822e-15
8.5099725e-06
0.0025698427
0.00053310513
7.1524645e-05
2.0100051e-06
1.7974743e-10
1.5179838e-15
2.2344976e-14
3.1475066e-06
0.0026061731
0.00061443838
4.0395017e-05
2.6414191e-09
4.6995594e-13
2.4357655e-14
2.571095e-13
7.1169003e-08
0.00075567969
0.00026660367
1.5983448e-06
4.7833744e-10
2.5350305e-12
6.1074294e-13
7.7120389e-11
2.7040189e-10
2.8873002e-07
1.9591684e-05
7.7271217e-06
6.6743699e-06
0.17600948
0.0089618458
0.0091939404
0.17550427
6.893975e-06
7.969526e-06
0.0082896331
7.7276433e-06
0.13924666
3.1340307e-17
3.1391252e-17
0.13915615
7.9695263e-06
0.0075495041
0.011311181
0.00085415697
0.052269326
3.0844129e-17
3.1817367e-17
0.05269945
0.0030439749
0.0077866102
0.00037104732
0.0083652757
2.5934112e-08
6.9484138e-17
1.27402e-16
1.1463916e-07
0.0011379111
0.0021129439
0.00042361301
0.0041937567
1.676834e-09
6.9549131e-16
1.8008963e-15
8.3588088e-08
2.1724098e-05
0.0032251755
0.00092220703
4.3554437e-07
5.6010472e-10
1.4670028e-14
3.8632903e-14
5.8369879e-13
0.0033199595
0.0042621286
0.0005892612
4.4017931e-10
3.7357263e-11
1.4134486e-12
5.8150833e-13
6.6825633e-12
0.0065571895
0.0021347047
0.00066038358
2.9433644e-10
2.4111996e-11
3.4282781e-11
6.8690033e-12
3.3223266e-09
0.00092179446
0.00056909866
8.6459898e-06
7.727124e-06
0.18058018
0.020420365
0.020701877
0.18147685
7.969526e-06
8.8851147e-06
0.0070895734
8.6490244e-06
0.14562055
3.1391252e-17
3.1817367e-17
0.1458913
8.8851151e-06
0.007593531
0.005042307
0.00045165771
0.073679858
9.0588863e-16
1.2035162e-15
0.073494227
0.0049838465
0.010119814
0.0032057824
0.015628109
0.00079846998
1.9843767e-15
1.2698659e-15
0.00042479363
0.0016744488
0.0034361073
0.0031703098
0.0078466456
3.2289257e-09
2.1919984e-15
4.7941514e-15
2.89725e-07
3.2726545e-05
0.0025388129
0.00083416204
7.0339266e-07
4.7662784e-10
1.4061979e-14
3.0799808e-14
1.8110095e-10
0.0015474174
0.0061212442
0.0011598883
1.0038431e-07
2.1811745e-12
1.208923e-12
4.3091357e-13
4.9808968e-12
0.012137941
0.0041913294
0.001153607
1.2082855e-06
1.706367e-11
3.5153869e-12
5.1558597e-12
1.3840166e-08
0.0030371885
0.00083070685
9.8161349e-06
8.6460415e-06
0.21335419
0.026863859
0.027062101
0.21237031
8.8851147e-06
9.9909292e-06
0.012126105
9.8187308e-06
0.16528831
3.6553704e-17
3.8736316e-17
0.16496359
9.9909331e-06
0.009427197
0.019576544
0.00022333092
0.085124855
6.8952394e-15
9.5494117e-15
0.086366239
0.0095417071
0.0083432498
0.001277077
0.019704149
0.0022185642
3.8610998e-15
4.7834363e-15
0.001757729
0.0034743515
0.0024868783
0.0011126476
0.011644938
3.9564095e-09
5.227986e-15
9.9226482e-15
6.4463548e-07
5.4046858e-05
0.0024685663
0.00054562995
0.00018823599
4.2414791e-11
4.8835757e-14
7.8980846e-14
8.4032198e-13
0.0009165471
0.0066037745
0.0011867627
5.7720728e-07
8.5213649e-12
6.8599354e-13
8.3922642e-13
1.0467703e-11
0.013727547
0.0045072065
0.00081225399
4.2500869e-09
8.9494853e-11
1.4927272e-11
1.0694403e-11
9.1225762e-09
0.0035323133
0.00083364741
1.1811773e-05
9.8161721e-06
0.25441868
0.032310235
0.032733574
0.24885865
9.9909293e-06
1.1218417e-05
0.026039874
1.181171e-05
0.19977525
7.6822416e-17
9.2262493e-17
0.19494123
1.1223812e-05
0.012201054
0.049188601
0.00045288819
0.10278795
3.1327984e-14
3.0844571e-14
0.10263932
0.0077707908
0.017202072
0.0014561853
0.029116511
0.0036127366
8.6611951e-15
1.1814877e-14
0.0032417573
0.0038391948
0.0072838665
0.001511612
0.017286779
1.7254528e-09
1.5665402e-14
1.6930133e-14
4.0858945e-08
9.9783702e-05
0.0023250125
0.00057388578
0.0013260479
3.7757194e-11
1.9850967e-13
7.3962681e-14
1.1484626e-12
0.00020083971
0.0093277562
0.00085734648
1.4415314e-07
1.0685705e-09
3.288705e-12
1.5474619e-12
1.3554296e-11
0.015642199
0.0065659773
0.00021929942
3.1142709e-09
6.9655325e-10
4.7666986e-11
1.3644299e-11
1.0650325e-08
0.0043964201
0.0020175416
1.4192142e-05
1.1811707e-05
0.26869782
0.045487582
0.045692739
0.26328193
1.1218479e-05
1.2769436e-05
0.030964004
1.4192118e-05
0.22363667
2.5708211e-16
2.7078958e-16
0.21767412
1.2769436e-05
0.018694633
0.047598302
0.0041240806
0.12676862
8.7071011e-16
8.8316352e-14
0.12255044
0.0070055601
0.041073651
0.0018263008
0.037256171
0.008506507
2.3582825e-12
4.8309615e-14
0.0075283681
0.0045638122
0.028548954
0.0019566593
0.019664216
1.9661729e-06
6.7588491e-14
4.936877e-14
6.4600015e-10
0.000146588
0.00043833149
0.0019083924
0.00046169796
2.1071162e-10
3.2005149e-13
8.1155155e-14
3.713951e-12
0.0019710115
0.011020436
0.00063009286
1.3261657e-08
6.1430268e-11
4.8591726e-12
6.2185158e-13
7.599359e-12
0.019379511
0.011551746
8.6770385e-06
3.9628902e-09
9.0483011e-10
6.1605391e-11
7.651475e-12
4.2053084e-08
0.00909114
0.0043305324
1.6861477e-05
1.4192116e-05
0.28659892
0.072246674
0.071226478
0.27912541
1.2769436e-05
1.6279393e-05
0.044233831
1.6861492e-05
0.24216889
5.8397841e-16
7.5617359e-16
0.24029422
1.6278901e-05
0.071903864
0.025650446
0.04335406
0.15169015
1.8281167e-15
2.4619958e-13
0.1460452
0.0089243569
0.032636948
0.0020682617
0.038534531
0.01870278
1.463873e-11
1.4782303e-13
0.017351852
0.0046180462
0.0082236252
0.0020232081
0.0097571855
1.5801778e-08
2.8374558e-12
1.0975242e-13
1.2942913e-08
0.017477168
0.0067447084
0.0065329981
2.411036e-05
1.325752e-10
3.759694e-13
1.2322598e-13
8.3652608e-12
0.031098343
0.0098422318
0.0027272109
4.3966797e-08
5.429094e-11
3.7410709e-12
3.7325702e-13
8.5995945e-07
0.020596591
0.0078396184
0.0025160699
1.833414e-09
6.2428191e-10
5.2382442e-11
3.8575752e-12
7.1429849e-08
0.0031319326
0.0017284178
1.9284559e-05
1.6861477e-05
0.31533044
0.1069295
0.10701042
0.32665804
1.6278901e-05
2.128066e-05
0.03625058
1.9292552e-05
0.26384171
1.8281167e-15
2.0205817e-15
0.27760057
0.0009198782
0.10346462
0.038942567
0.014646888
0.17170232
6.2914385e-13
7.2251613e-13
0.1759983
0.0047659459
0.013429672
0.0024118021
0.050901501
0.031794489
3.9369069e-11
3.0997125e-13
0.034327294
0.028595856
0.012206844
0.0037904963
0.03262817
3.9675514e-07
8.406522e-12
2.3973462e-13
2.2607845e-05
0.031237778
0.010428325
0.011533571
0.0005960159
1.4329313e-08
3.6836518e-13
1.9297055e-13
2.4623813e-09
0.031172354
0.0051332572
0.0074570293
5.0235705e-08
4.195486e-11
2.671214e-12
3.694426e-13
3.8738369e-07
0.01119224
0.0013615289
0.0067752725
1.1437411e-09
7.809603e-10
3.2563896e-11
2.6676893e-12
2.1449819e-08
4.8443865e-05
1.3350558e-05
2.1391901e-05
1.9284599e-05
0.33322496
0.14435939
0.15455371
0.32826269
2.1280682e-05
2.4831209e-05
0.043119502
2.1391901e-05
0.28660642
7.6628115e-15
5.4452008e-15
0.32553567
2.4878197e-05
0.06303423
0.038405667
0.018647208
0.19750173
8.0802515e-12
6.5816888e-12
0.2306063
0.0043003194
0.019918562
0.00282336
0.051442402
0.049405736
5.1206681e-11
8.6857616e-13
0.058331508
0.054334127
0.012961123
0.0090486053
0.034666577
2.9068392e-05
2.1890586e-11
4.0583352e-13
6.8090911e-09
0.030651569
0.031166726
0.019381601
0.00044639448
2.587104e-08
5.4031841e-13
3.4247888e-13
6.281956e-08
0.0070617979
0.0083921538
0.016491198
8.0504874e-08
6.1547128e-11
1.4484109e-12
4.2380872e-13
1.8002549e-09
0.00019958114
0.0075972869
0.018772094
1.1737224e-09
1.1208398e-09
1.5491416e-11
1.8010726e-12
1.5371415e-11
1.6711512e-09
0.004700947
2.4867502e-05
2.1391901e-05
0.3404321
0.19140507
0.23029788
0.3287553
2.4831186e-05
2.8240876e-05
0.094038765
2.4867422e-05
0.31650858
3.7560407e-14
2.8023212e-14
0.33076514
9.7280562e-05
0.085019497
0.0050336619
0.0096528732
0.2340596
2.3009163e-11
7.1881327e-12
0.28680287
0.0098085031
0.025607948
0.0032773383
0.035890346
0.071498829
4.283581e-11
2.6659752e-12
0.10155357
0.031274572
0.016194223
0.028186901
0.012200982
8.0097978e-08
5.7008356e-11
4.7801266e-13
4.8594805e-08
0.013076794
0.035188264
0.045528412
1.2921449e-05
2.8285228e-11
4.424188e-13
4.2381e-13
5.0313877e-11
1.8011067e-05
0.014159093
0.039686873
1.1010216e-07
3.6782768e-10
9.7545438e-13
4.3969901e-13
6.151059e-13
1.5602296e-07
0.01707546
0.038370164
1.4561712e-09
9.5386536e-10
7.8730725e-09
6.1490829e-13
3.2247585e-12
0.0012440576
0.019619882
3.1315475e-05
2.4867422e-05
0.34951213
0.25120004
0.28717554
0.31452938
2.8240876e-05
3.3025088e-05
0.16984715
0.016981586
0.32908034
5.4316812e-14
5.1245893e-14
0.33239677
3.3024694e-05
0.12871608
0.0062588641
0.016664574
0.26561307
1.7606758e-11
5.4360711e-14
0.31204134
0.006021513
0.018633014
0.0092978585
0.016089901
0.10274602
3.9724939e-11
7.9644779e-12
0.1567766
0.019020409
0.02240606
0.0550055
0.001692745
1.2679597e-09
7.1113735e-11
6.1551227e-13
0.001360399
0.004285426
0.035151596
0.054659884
0.0018120059
2.6110335e-11
7.9951531e-13
4.4026646e-13
9.3201628e-11
0.0023793822
0.021128258
0.038530196
0.023410087
4.7109368e-10
1.1129009e-11
6.1912321e-13
1.1014505e-11
0.024680965
0.028458676
0.035423711
0.020857642
1.3292428e-09
1.3334447e-08
3.2369158e-12
2.5018066e-09
0.0265024
0.021857272
5.7824009e-05
3.1315474e-05
0.36717519
0.30332053
0.30795584
0.37025102
0.023952361
0.12769249
0.18594487
0.017187928
0.313515
5.5488611e-14
5.4316812e-14
0.35106379
0.0095631109
0.055367898
0.0080430004
0.013417083
0.26423629
5.9344861e-14
5.5488611e-14
0.30782519
0.013798839
0.03827461
0.019188918
0.026371084
0.13992804
3.2760721e-11
1.3770041e-11
0.17647621
0.020472958
0.069260637
0.055042466
0.043463122
0.00265722
6.2862177e-11
3.3591733e-12
0.0072984622
0.0048360292
0.025819723
0.053928998
0.02565505
2.5492121e-07
2.4905461e-11
7.9987721e-13
1.1582192e-10
0.024233945
0.016301056
0.023013184
0.020485514
3.4178411e-10
3.3267749e-11
1.1173269e-11
3.1872506e-09
0.053987188
0.020520675
0.015319314
0.010563365
2.0893728e-09
7.9060089e-09
5.2872614e-08
3.6933614e-08
0.023602205
0.010140001
4.1968923e-05
3.8101484e-05
0.39984748
0.35283522
0.35360422
0.51133142
0.075155889
0.080057179
0.12099201
0.00012466464
0.30289253
5.7674519e-14
5.5488611e-14
0.46684698
0.013266701
0.013395855
0.034289885
0.0046718133
0.25338304
5.9836155e-14
5.7674519e-14
0.33639058
0.030223288
0.056976323
0.020469363
0.072287714
0.15388735
2.5740013e-11
3.4033132e-11
0.18092449
0.030190595
0.14688415
0.055023298
0.042291821
0.009440465
3.7034328e-11
1.786457e-11
0.010460935
0.015131187
0.015864011
0.05308247
0.010570787
7.8377164e-07
3.5487471e-11
1.5419355e-11
3.0418509e-10
0.044047855
0.017128217
0.017225689
0.0026797918
7.8107188e-10
3.8826013e-11
1.2647513e-10
9.2662303e-09
0.058070535
0.021198325
0.022781071
5.1110793e-09
4.3002011e-09
2.4139784e-10
2.5086807e-07
1.1484696e-07
0.015460079
0.00700145
4.4526269e-05
4.1968924e-05
0.4636994
0.42881343
0.51067404
0.51132541
0.0098115038
0.0028220047
0.084155959
4.4528476e-05
0.3338164
5.9836154e-14
0.019712515
0.51122335
0.0031262343
0.039553338
0.081611357
0.046652508
0.25691434
1.8184246e-13
0.006968999
0.45495143
0.063232347
0.084854855
0.021149041
0.063375619
0.15033197
2.5960741e-11
2.5845786e-11
0.23714339
0.054239814
0.055451847
0.053260903
0.022253871
0.012360004
2.5926957e-11
2.5638068e-11
0.012215411
0.013916189
0.025738896
0.053293998
0.00035365022
8.6351182e-09
2.7447853e-11
2.8012584e-11
1.9809843e-09
0.029903586
0.026275578
0.033540862
3.5056611e-07
2.6421318e-09
6.2050569e-09
2.0274019e-10
8.658974e-09
0.07400841
0.037944584
0.048188655
5.0520566e-09
4.9153757e-09
2.058145e-08
4.8799992e-07
4.0809285e-07
0.01619078
0.0118705
4.7399795e-05
4.4526269e-05
0.53492382
0.51265395
0.60538216
0.50908108
0.0026770901
0.0024813193
0.098578632
4.7399795e-05
0.46814584
2.807403e-06
0.045126547
0.51004663
0.0024605839
0.067437563
0.12536349
0.072173596
0.31413816
6.5620938e-05
0.025779389
0.50840131
0.072199371
0.12096903
0.021693448
0.04461305
0.1553262
2.5926777e-11
0.00013565816
0.37196199
0.052310779
0.033063019
0.036978787
0.0034758213
0.0096296215
2.8038389e-11
2.6721789e-11
0.032275582
0.014778735
0.030066712
0.05309831
0.00027643853
8.8997149e-07
2.8718339e-11
2.7321585e-11
1.3281118e-06
0.058975829
0.069965636
0.052977774
0.0015576426
4.3055286e-09
1.0620879e-10
7.4646363e-11
3.8569159e-09
0.096262354
0.038985955
0.051146638
0.018324641
5.0520553e-09
3.4517635e-07
4.1389656e-07
2.0030043e-06
0.019865063
0.012841938
5.0368268e-05
4.7399795e-05
0.54880748
0.59316552
0.60726405
0.43337
0.078770208
0.0022757434
0.10088448
8.6838096e-05
0.5482355
0.011409697
0.18703776
0.41985165
0.0021519323
0.070674052
0.21236066
0.037751257
0.44017491
0.00016704903
0.014690983
0.50761632
0.037875413
0.12228729
0.02191978
0.047787284
0.1912487
2.9955996e-11
2.4734538e-05
0.37769673
0.050536077
0.059148907
0.039289313
0.077871
0.010917166
2.8195367e-11
2.7683607e-11
0.038215621
0.10534749
0.026699378
0.047646237
0.070467739
2.7422568e-09
9.5133162e-11
2.8986542e-11
1.7733286e-07
0.1565716
0.063783369
0.02930407
0.043121761
2.8970195e-08
9.6933665e-09
4.2821756e-11
2.0152802e-06
0.096536872
0.043262706
0.030411062
0.038562543
7.5070433e-09
8.7808371e-07
1.5143637e-07
2.6239328e-06
0.015843587
0.012502551
0.00024115646
0.018615903
0.5706123
0.60713088
0.60726405
0.41785264
0.11217905
0.0021750293
0.047278239
0.00079971545
0.51286442
0.3036035
0.52627945
0.15732648
0.0020562352
0.035297996
0.16515133
0.0021151877
0.49294139
0.034827253
0.069279019
0.49801565
0.017820366
0.1226042
0.1679652
0.12487249
0.3083448
0.00099998082
8.304114e-07
0.42135931
0.10066424
0.12331403
0.027638385
0.12271328
0.038510532
2.9607512e-11
2.7686808e-11
0.12106142
0.16928896
0.023185466
0.027369886
0.058182702
1.1195084e-07
3.5590999e-11
3.01415e-07
3.6224014e-07
0.16074589
0.038830646
0.0091446478
0.03388609
8.4468196e-09
2.4515752e-09
2.4751627e-09
6.239936e-08
0.079795858
0.026236879
0.0069886098
0.023600828
3.7172571e-07
6.5018335e-07
1.0559231e-07
2.6992687e-06
0.0080151929
0.0055050259
0.027941258
0.17719663
0.51168705
0.60697205
0.52704874
0.43099422
0.16604716
0.0021214014
0.016170695
0.0011494699
0.4072977
0.60556839
0.60415905
0.17851485
0.002035333
0.003899429
0.099534052
0.027937302
0.49154755
0.2027081
0.19892702
0.48595817
0.02208426
0.10763301
0.18075486
0.12375737
0.47249945
0.015807564
8.9295463e-06
0.46046367
0.14938894
0.14929704
0.14767226
0.10508438
0.20408326
0.002052664
3.3678881e-06
0.22565361
0.1701856
0.043583603
0.061398916
0.056684209
0.0025555538
1.71262e-07
1.9020635e-06
0.0014068459
0.10458416
0.015007708
0.017917443
0.028301478
8.8045439e-08
5.7234897e-09
2.6872587e-09
1.0577657e-05
0.03158992
0.0053781744
0.014933934
0.0101477
1.3835311e-07
1.7515768e-07
8.9560256e-08
1.1863198e-06
0.0019995196
0.0050589167
0.043563436
0.40346706
0.30379963
0.60506328
0.50756702
0.44224723
0.22581748
0.0020118026
0.0080674023
0.11968536
0.22211547
0.60514106
0.60450549
0.29916085
0.0020120963
0.0020128223
0.088355455
0.02201869
0.45414397
0.50620131
0.52634596
0.5302797
0.075626915
0.032312689
0.18075486
0.047301092
0.47253872
0.092472494
0.064413821
0.32525775
0.15864336
0.14395164
0.16636441
0.23087328
0.23341221
0.0030596618
3.9347306e-06
0.18015153
0.11700402
0.14031995
0.11056255
0.14175883
0.0018761205
1.3455985e-06
3.4171759e-07
3.7794658e-06
0.031657971
0.020032782
0.063626357
0.051521374
3.4008478e-05
3.1430385e-08
1.2620383e-08
9.1461717e-06
0.0029167192
0.03633594
0.038255435
0.01054568
1.085453e-06
3.3787485e-08
4.5292319e-08
4.1825662e-08
0.0015637792
0.014248747
0.13058641
0.43364669
0.20863536
0.59613582
0.48204181
0.36899593
0.3453629
0.015971076
0.0033597219
0.19496587
0.19815318
0.60251387
0.60393628
0.24770578
0.0060699016
0.0020118134
0.032926872
0.016891383
0.3460828
0.60676289
0.60555281
0.58913221
0.1048932
0.014659423
0.093278672
0.079046216
0.4722591
0.25776555
0.32862986
0.2114757
0.17318929
0.13403034
0.081533948
0.22839116
0.14488273
0.0011948337
0.0088885399
0.092414187
0.021637914
0.15957136
0.11212527
0.21724723
1.4289739e-05
6.7900493e-07
5.060711e-06
4.0486933e-07
0.0040059814
0.080568393
0.096136403
0.093243333
2.7136962e-05
3.7723404e-08
7.6708047e-08
2.5593709e-07
4.0481494e-07
0.081548591
0.032365178
0.010787418
3.8607364e-06
2.7013004e-08
3.190593e-08
3.8246525e-08
0.002513886
0.040034747
0.31520062
0.45325437
0.20910733
0.59964419
0.49229387
0.24433036
0.4026876
0.077465047
0.0029974612
0.25044016
0.21346269
0.5744738
0.40041337
0.20131596
0.048135894
0.0020260565
0.0028445692
0.013827458
0.20178872
0.60783356
0.60722339
0.60533569
0.070160636
0.041042973
0.0053532455
0.10880061
0.39801137
0.37852087
0.60644568
0.40578427
0.17721551
0.16052264
0.022934179
0.22793777
0.028707996
0.01356295
0.19828034
0.12298051
0.005280882
0.16021318
0.064268276
0.18273505
7.584443e-06
1.6760734e-06
0.00017352254
4.625263e-06
0.0031617872
0.13927803
0.097252108
0.093616764
1.9532146e-05
4.8475083e-08
1.297046e-06
4.2454278e-07
0.0032600104
0.075137618
0.022525363
0.0094325118
6.0464525e-06
2.2541443e-08
3.1604401e-08
4.1163431e-08
0.0060226542
0.043698466
0.40864387
0.45352463
0.3287727
0.6074537
0.42649726
0.28230571
0.40972221
0.1809199
0.055771935
0.3693094
0.22429931
0.60345294
0.34199149
0.2792922
0.25991988
0.0021343336
0.0027547536
0.02942474
0.18809449
0.60787747
0.60783383
0.46562046
0.064741209
0.064465496
0.0026284603
0.075119342
0.26732358
0.5632582
0.60722342
0.4926282
0.12676637
0.16021318
0.021213402
0.2063083
1.1329263e-05
0.069721596
0.34594824
0.19321424
0.050522068
0.15668201
0.018104224
0.073373733
7.0551614e-06
6.0668259e-05
0.0089237301
0.0011856232
0.0075109384
0.079135847
0.039923046
0.049411881
9.4854497e-06
8.2284793e-08
4.6838994e-05
5.4600112e-07
0.033757712
0.046458262
0.024573647
0.0021063407
4.9465886e-06
2.2455089e-08
1.8294619e-06
2.080586e-07
0.0098488841
0.030365584
0.25691211
0.45964866
0.59582531
0.60765198
0.37526155
0.38933023
0.40959302
0.27338295
0.036731086
0.4207441
0.26715301
0.60787749
0.34828038
0.28028885
0.40952544
0.0022797728
0.0026486226
0.15881603
0.3655864
0.60789969
0.59833355
0.32389144
0.10164378
0.022552035
0.002533265
0.079765677
0.32476259
0.6078757
0.60707341
0.5571722
0.040311013
0.12233309
0.0098416342
0.064267364
0.015592814
0.20765477
0.35959538
0.27361162
0.097322295
0.11229979
0.001391738
0.019408204
3.3752595e-06
9.7185773e-06
0.0031965772
0.015366726
0.025713111
0.013767416
0.0056987618
0.0076065496
2.564677e-06
1.3386067e-07
8.9749306e-07
3.4125078e-06
0.039054962
0.016012312
0.019916386
2.0546592e-07
4.2234046e-07
3.6611006e-08
1.4047121e-06
7.7999114e-05
0.0095359082
0.013536123
0.23210758
0.46338546
0.60349264
0.60275522
0.32799696
0.3940768
0.3367722
0.38296915
0.062426136
0.29265598