/*--------------------------------*- C++ -*----------------------------------*\
  =========                 |
  \\      /  F ield         | OpenFOAM: The Open Source CFD Toolbox
   \\    /   O peration     | Website:  https://openfoam.org
    \\  /    A nd           | Version:  13
     \\/     M anipulation  |
\*---------------------------------------------------------------------------*/
FoamFile
{
    format      ascii;
    class       surfaceScalarField;
    location    "0.11";
    object      alphaPhi.water;
}
// * * * * * * * * * * * * * * * * * * * * * * * * * * * * * * * * * * * * * //

dimensions      [0 3 -1 0 0 0 0];

internalField   nonuniform List<scalar> 
150720
(
0
0
0
0
0
0
0
0
0
0
0
0
0
0
0
0
0
0
0
0
0
0
0
0
0
0
0
0
0
0
0
0
0
0
0
0
0
0
0
0
0
0
0
0
0
0
0
0
0
0
0
0
0
0
0
0
0
0
0
0
0
0
0
0
0
0
0
0
0
0
0
0
0
0
0
0
0
0
0
0
0
0
0
0
0
0
0
0
0
0
0
0
0
0
0
0
0
0
0
0
0
0
0
0
0
0
0
0
0
0
0
0
0
0
0
0
0
0
0
0
0
0
0
0
0
0
0
0
0
0
0
0
0
0
0
0
0
0
0
0
0
0
0
0
0
0
0
0
0
0
0
0
0
0
0
0
0
0
0
0
0
0
0
0
0
0
0
0
0
0
0
0
0
0
0
0
0
0
0
0
0
0
0
0
0
0
0
0
0
0
0
0
0
0
0
0
0
0
0
0
0
0
0
0
0
0
0
0
0
0
0
0
0
0
0
0
0
0
0
0
0
0
0
0
0
0
0
0
0
0
0
0
0
0
0
0
0
0
0
0
0
0
0
0
0
0
0
0
0
0
0
0
0
0
0
0
0
0
0
0
0
0
0
0
0
0
0
0
0
0
0
0
0
0
0
0
0
0
0
0
0
0
0
0
0
0
0
0
0
0
0
0
0
0
0
0
0
0
0
0
0
0
0
0
0
0
0
0
0
0
0
0
0
0
0
0
0
0
0
0
0
0
0
0
0
0
0
0
0
0
0
0
0
0
0
0
0
0
0
0
0
0
0
0
0
0
0
0
0
0
0
0
0
0
0
0
0
0
0
0
0
0
0
0
0
0
0
0
0
0
0
0
0
0
0
0
0
0
0
0
0
0
0
0
0
0
0
0
0
0
0
0
0
0
0
0
0
0
0
0
0
0
0
0
0
0
0
0
0
0
0
0
0
0
0
0
0
0
0
0
0
0
0
0
0
0
0
0
0
0
0
0
0
0
0
0
0
0
0
0
0
0
0
0
0
0
0
0
0
0
0
0
0
0
0
0
0
0
0
0
0
0
0
0
0
0
0
0
0
0
0
0
0
0
0
0
0
0
0
0
0
0
0
0
0
0
0
0
0
0
0
0
0
0
0
0
0
0
0
0
0
0
0
0
0
0
0
0
0
0
0
0
0
0
0
0
0
0
0
0
0
0
0
0
0
0
0
0
0
0
0
0
0
0
0
0
0
0
0
0
0
0
0
0
0
0
0
0
0
0
0
0
0
0
0
0
0
0
0
0
0
0
0
0
0
0
0
0
0
0
0
0
0
0
0
0
0
0
0
0
0
0
0
0
0
0
0
0
0
0
0
0
0
0
0
0
0
0
0
0
0
0
0
0
0
0
0
0
0
0
0
0
0
0
0
0
0
0
0
0
0
0
0
0
0
0
0
0
0
0
0
0
0
0
0
0
0
0
0
0
0
0
0
0
0
0
0
0
0
0
0
0
0
0
0
0
0
0
0
0
0
0
0
0
0
0
0
0
0
0
0
0
0
0
0
0
0
0
0
0
0
0
0
0
0
0
0
0
0
0
0
0
0
0
0
0
0
0
0
0
0
0
0
0
0
0
0
0
0
0
0
0
0
0
0
0
0
0
0
0
0
0
0
0
0
0
0
0
0
0
0
0
0
0
0
0
0
0
0
0
0
0
0
0
0
0
0
0
0
0
0
0
0
0
0
0
0
0
0
0
0
0
0
0
0
0
0
0
0
0
0
0
0
0
0
0
0
0
0
0
0
0
0
0
0
0
0
0
0
0
0
0
0
0
0
0
0
0
0
0
0
0
0
0
0
0
0
0
0
0
0
0
0
0
0
0
0
0
0
0
0
0
0
0
0
0
0
0
0
0
0
0
0
0
0
0
0
0
0
0
0
0
0
0
0
0
0
0
0
0
0
0
0
0
0
0
0
0
0
0
0
0
0
0
0
0
0
0
0
0
0
0
0
0
0
0
0
0
0
0
0
0
0
0
0
0
0
0
0
0
0
0
0
0
0
0
0
0
0
0
0
0
0
0
0
0
0
0
0
0
0
0
0
0
0
0
0
0
0
0
0
0
0
0
0
0
0
0
0
0
0
0
0
0
0
0
0
0
0
0
0
0
0
0
0
0
0
0
0
0
0
0
0
0
0
0
0
0
0
0
0
0
0
0
0
0
0
0
0
0
0
0
0
0
0
0
0
0
0
0
0
0
0
0
0
0
0
0
0
0
0
0
0
0
0
0
0
0
0
0
0
0
0
0
0
0
0
0
0
0
0
0
0
0
0
0
0
0
0
0
0
0
0
0
0
0
0
0
0
0
0
0
0
0
0
0
0
0
0
0
0
0
0
0
0
0
0
0
0
0
0
0
0
0
0
0
0
0
0
0
0
0
0
0
0
0
0
0
0
0
0
0
0
0
0
0
0
0
0
0
0
0
0
0
0
0
0
0
0
0
0
0
0
0
0
0
0
0
0
0
0
0
0
0
0
0
0
0
0
0
0
0
0
0
0
0
0
0
0
0
0
0
0
0
0
0
0
0
0
0
0
0
0
0
0
0
0
0
0
0
0
0
0
0
0
0
0
0
0
0
0
0
0
0
0
0
0
0
0
0
0
0
0
0
0
0
0
0
0
0
0
0
0
0
0
0
0
0
0
0
0
0
0
0
0
0
0
0
0
0
0
0
0
0
0
0
0
0
0
0
0
0
0
0
0
0
0
0
0
0
0
0
0
0
0
0
0
0
0
0
0
0
0
0
0
0
0
0
0
0
0
0
0
0
0
0
0
0
0
0
0
0
0
0
0
0
0
0
0
0
0
0
0
0
0
0
0
0
0
0
0
0
0
0
0
0
0
0
0
0
0
0
0
0
0
0
0
0
0
0
0
0
0
0
0
0
0
0
0
0
0
0
0
0
0
0
0
0
0
0
0
0
0
0
0
0
0
0
0
0
0
0
0
0
0
0
0
0
0
0
0
0
0
0
0
0
0
0
0
0
0
0
0
0
0
0
0
0
0
0
0
0
0
0
0
0
0
0
0
0
0
0
0
0
0
0
0
0
0
0
0
0
0
0
0
0
0
0
0
0
0
0
0
0
0
0
0
0
0
0
0
0
0
0
0
0
0
0
0
0
0
0
0
0
0
0
0
0
0
0
0
0
0
0
0
0
0
0
0
0
0
0
0
0
0
0
0
0
0
0
0
0
0
0
0
0
0
0
0
0
0
0
0
0
0
0
0
0
0
0
0
0
0
0
0
0
0
0
0
0
0
0
0
0
0
0
0
0
0
0
0
0
0
0
0
0
0
0
0
0
0
0
0
0
0
0
0
0
0
0
0
0
0
0
0
0
0
0
0
0
0
0
0
0
0
0
0
0
0
0
0
0
0
0
0
0
0
0
0
0
0
0
0
0
0
0
0
0
0
0
0
0
0
0
0
0
0
0
0
0
0
0
0
0
0
0
0
0
0
0
0
0
0
0
0
0
0
0
0
0
0
0
0
0
0
0
0
0
0
0
0
0
0
0
0
0
0
0
0
0
0
0
0
0
0
0
0
0
0
0
0
0
0
0
0
0
0
0
0
0
0
0
0
0
0
0
0
0
0
0
5.9708517e-40
1.119514e-39
1.2227285e-37
4.811572e-43
2.5895207e-45
7.9376251e-45
5.9707464e-40
6.746666e-51
3.6631012e-50
2.5894773e-45
1.6922662e-57
7.7749301e-56
6.7465866e-51
-1.8100819e-51
2.0857899e-56
1.8100627e-51
-5.1140706e-49
1.7822261e-50
4.9177473e-49
-1.0375912e-43
2.7375193e-45
9.9432243e-44
4.0798918e-40
1.7710474e-38
-1.1195216e-39
8.6621616e-42
6.1731063e-44
1.63197e-39
2.8417637e-47
1.1357508e-46
2.2292451e-46
8.6697627e-42
9.7657386e-52
3.017401e-51
1.1360772e-46
6.7656573e-58
4.265701e-56
9.7660827e-52
-8.9327133e-51
3.8887826e-55
8.9323243e-51
-2.1754083e-48
9.9332502e-50
2.0731427e-48
-1.431521e-43
4.7125216e-45
1.4117558e-43
3.0276481e-40
9.6762688e-39
2.0866519e-43
1.9878873e-46
1.2987874e-47
6.1519286e-44
2.197244e-52
2.5056579e-48
6.3888521e-48
5.394925e-46
3.8695843e-53
7.4779706e-54
2.5099125e-48
4.2241911e-59
3.7854155e-57
3.8744275e-53
-2.3932115e-50
4.0002145e-54
2.1051089e-50
-5.1796011e-48
1.0451647e-49
5.0859873e-48
-1.9836438e-43
9.4979747e-45
2.0976869e-43
1.1634401e-42
7.0512691e-40
3.752489e-44
1.8282815e-50
3.6478493e-52
1.2969226e-47
2.9700907e-56
1.9782899e-50
6.3359574e-52
5.6774564e-48
1.9435158e-54
1.3591552e-53
1.0990663e-50
3.0112391e-60
1.6362586e-58
1.9524326e-54
-5.9111275e-53
2.0851296e-55
6.057234e-53
-4.6538075e-49
6.6516089e-51
4.9096599e-49
-4.1215067e-45
9.4914368e-48
1.4442018e-44
1.1876345e-46
1.4169763e-42
3.0577637e-47
2.2964039e-54
1.3523565e-55
3.6234947e-52
3.8314005e-57
2.5578579e-54
0
6.3190453e-52
7.3255974e-56
1.1781246e-55
2.4558824e-53
7.6802706e-61
7.7089543e-58
7.2718682e-56
-4.9942451e-55
2.1755106e-56
4.7507686e-55
-1.9778538e-50
5.4564757e-52
3.2207334e-50
-1.7646851e-49
2.2054765e-51
9.7997358e-48
2.8540635e-50
1.1855194e-46
6.4981435e-51
6.8090787e-58
1.2856914e-58
1.3443318e-55
8.9217892e-61
1.2946711e-56
3.2251903e-56
1.740377e-54
1.2907935e-56
2.1529996e-56
3.7142891e-54
1.2825285e-59
2.2440041e-57
7.002539e-56
-9.1557072e-55
2.7177361e-56
9.3633667e-55
-1.5326726e-54
1.2798247e-55
5.357922e-52
-4.6861434e-53
9.713345e-55
1.9549557e-51
1.3563024e-53
2.8476601e-50
3.7520482e-54
5.2994885e-61
1.8964825e-62
1.2811231e-58
1.4029153e-65
6.7312873e-58
2.9593759e-58
1.0756019e-55
5.1804975e-58
1.545194e-58
1.191472e-55
1.8055069e-60
5.0615269e-59
8.3157183e-57
-8.8653392e-59
2.2245875e-59
3.026724e-56
-7.9816248e-58
7.3581363e-59
1.22224e-55
-1.5827948e-56
5.6612839e-58
8.892922e-55
4.3445634e-57
1.3548036e-53
1.4176373e-57
5.6638591e-64
1.6238374e-62
2.2395611e-68
2.1600441e-63
2.7056282e-60
3.9997907e-58
1.5907314e-59
5.5183948e-61
2.0558047e-58
6.8639459e-60
6.9002256e-63
7.4349698e-59
2.3727558e-60
-5.5039555e-62
1.8717367e-59
2.9809107e-61
-5.7872007e-61
6.7679262e-59
1.9332642e-60
-1.2874336e-59
5.2073566e-58
1.6738949e-59
4.1949354e-57
4.7104678e-61
1.3642152e-58
3.9370106e-30
7.0947599e-30
5.3666214e-28
1.73969e-32
1.0039239e-30
2.9178877e-30
2.7984566e-28
5.1493042e-28
1.3733827e-27
1.4406466e-25
6.5913087e-28
1.6658017e-26
2.4709433e-24
-1.8815771e-54
7.1987832e-28
9.6518135e-26
-5.1287131e-49
1.3700438e-53
6.3049311e-49
-7.3059034e-44
1.676205e-48
1.7251284e-43
1.3872782e-43
2.9550753e-38
-1.184049e-38
7.0870307e-32
1.8226708e-33
9.6885493e-30
6.2133755e-34
1.5998869e-32
0
4.4813042e-30
8.1885284e-30
1.129669e-31
2.1037058e-27
7.429306e-30
7.7194828e-31
2.6946423e-26
-1.2962126e-53
3.1746805e-32
1.1188557e-27
-1.8198324e-48
1.0372852e-52
1.932857e-48
-6.5658832e-44
7.7083824e-48
2.0695464e-43
1.711722e-43
9.6761711e-39
2.134165e-46
9.6812318e-34
4.2976882e-35
2.5793318e-31
3.2267608e-38
1.0439197e-35
5.0854716e-37
2.856578e-33
5.5586848e-34
8.3011791e-36
1.1248844e-31
2.0614515e-34
1.5310055e-34
7.7310223e-31
-4.3105653e-51
4.6636647e-36
3.1948287e-32
-3.2128773e-48
8.1049565e-52
8.0349736e-48
-1.1721627e-44
1.7978664e-47
2.2148996e-43
1.6349459e-40
5.4756958e-40
1.1940244e-42
1.0814573e-35
1.17624e-37
3.0646457e-33
4.177778e-40
2.9145968e-38
1.4764464e-38
5.0208655e-35
3.7755564e-38
1.523965e-39
8.2911991e-36
4.0632341e-38
1.3193656e-38
1.5578769e-34
-5.4718526e-46
6.3462527e-40
4.7170314e-36
-7.7814687e-45
5.9372555e-49
7.2342982e-45
-3.8410073e-40
5.4157411e-44
3.8405326e-40
2.3288085e-39
8.8322586e-38
1.4134171e-41
7.1749724e-39
3.8025294e-40
2.1146621e-36
8.9242345e-44
2.0690139e-41
1.1098485e-41
9.0427644e-38
7.2767676e-42
5.8732027e-43
1.536473e-39
6.4441892e-42
3.0391395e-42
2.0371176e-38
-5.7766123e-48
2.4082614e-43
6.4517538e-40
-1.7263159e-45
6.648294e-47
1.5279934e-45
-4.3165552e-41
2.6443676e-42
8.1184748e-41
2.9608427e-41
1.037553e-38
4.9841062e-43
6.6616952e-43
9.2300672e-44
3.795659e-40
1.9434192e-45
6.9010109e-45
3.8838035e-45
1.1753878e-41
1.5596068e-45
1.825636e-46
5.9267878e-43
1.4836031e-45
9.5485237e-46
3.0752414e-42
-6.4002479e-48
7.7983614e-47
2.4229628e-43
-1.1881774e-45
8.115682e-47
2.903312e-45
-2.3062976e-43
8.5240952e-45
4.4929971e-42
1.2904955e-44
5.7070887e-41
9.000838e-47
1.4645669e-47
2.2703957e-47
9.2264974e-44
2.2858167e-48
2.7085492e-48
2.177614e-48
3.8935815e-45
5.2193951e-49
1.4125805e-50
1.8592033e-46
4.4646133e-49
3.8304514e-49
9.5453475e-46
-1.7850685e-49
2.942299e-50
7.8598705e-47
-5.7235512e-47
5.6199264e-49
2.3097756e-46
-2.7931645e-47
4.3257489e-48
1.4498183e-44
3.0391598e-48
1.2878048e-44
2.4089381e-50
6.037525e-51
1.5729062e-47
1.8193649e-50
6.9506612e-48
1.1113556e-51
2.127684e-48
5.4856186e-50
1.8319432e-52
6.2067571e-50
1.4378924e-51
1.6178359e-52
3.7557045e-49
7.4962403e-51
-1.1212027e-51
3.0396917e-50
3.1119115e-52
-1.5255028e-50
7.6002817e-49
1.8975106e-50
-9.6758467e-51
4.1959864e-48
1.0339974e-49
2.9595261e-48
9.9020471e-54
6.9981146e-50
4.2846267e-30
7.7585136e-30
5.6634596e-28
7.4745383e-32
9.6017459e-28
1.2775713e-27
7.8114958e-26
2.9729408e-26
6.499971e-26
8.1087105e-24
9.300745e-25
1.3408479e-23
1.9746046e-21
-1.6174602e-23
6.0952388e-25
4.8380288e-23
0
1.2701966e-22
1.607156e-20
-3.0901054e-22
2.2531364e-27
3.0900829e-22
5.3235359e-22
7.9248264e-20
-1.7257041e-37
9.512779e-32
1.6532393e-31
9.6133538e-30
2.2440255e-33
3.6082001e-29
4.8236046e-31
3.0954679e-27
3.8223694e-28
2.6005251e-30
1.0249528e-25
8.6397342e-27
4.6118599e-28
1.9594889e-23
-2.0670813e-25
4.630694e-29
9.9036373e-25
-8.2657102e-29
0
1.9040056e-22
-3.3655197e-24
2.4531426e-27
8.6381604e-24
1.1945008e-26
9.5501421e-22
2.0090969e-27
8.9423261e-32
3.3906474e-31
2.9906535e-29
4.319214e-33
3.2769814e-33
0
1.1698619e-30
9.3401091e-33
2.4942266e-34
2.7071927e-30
1.9919226e-31
7.5986437e-32
4.62276e-28
-2.7789879e-31
5.8309604e-33
4.7142856e-29
-8.4651187e-27
0
2.2102495e-26
-7.9083934e-29
4.827743e-26
3.2950842e-24
7.4588086e-31
1.1865178e-26
2.7210529e-34
3.5772228e-35
5.1697372e-34
1.2604606e-30
2.0321336e-34
3.8430611e-37
0
1.5999531e-34
1.5053306e-36
3.8354749e-38
2.5742802e-34
2.3558838e-35
8.041564e-36
7.632722e-32
-6.5830062e-34
8.9017523e-37
5.7686454e-33
-4.7806643e-29
0
5.3833965e-29
-8.7762947e-33
8.5167422e-31
1.4035154e-26
6.4380702e-35
7.3703997e-31
3.4693203e-37
2.3012019e-39
1.6227754e-37
1.2406689e-33
2.1011255e-37
1.0838187e-40
1.9256139e-41
2.908994e-37
1.2667574e-40
7.6936558e-42
4.010267e-38
2.5705903e-39
9.8545812e-40
8.0834754e-36
-1.4632626e-37
1.9512123e-39
6.539464e-37
-3.2490368e-33
1.2551221e-36
3.9784671e-33
-6.5983195e-37
1.3048366e-34
8.4827909e-31
8.2253393e-39
6.3751243e-35
1.4357124e-40
1.2811488e-42
3.1207803e-41
1.6265135e-37
1.4896622e-41
2.3451202e-44
1.4129037e-44
3.2386776e-41
1.8067532e-44
2.083006e-45
8.4379352e-42
7.7343734e-43
2.6775463e-43
9.9946473e-40
-2.6180518e-40
6.055858e-43
1.4276948e-40
-1.1474147e-36
3.5598407e-40
1.2585933e-36
-1.1317509e-40
3.4252158e-38
1.3921184e-34
2.7977565e-42
8.2250103e-39
2.94305e-44
6.4916594e-46
7.3774907e-45
3.1296606e-41
2.7286838e-45
7.0113658e-48
4.5697701e-47
1.7913574e-44
5.2719155e-48
6.0501484e-51
2.3474258e-45
2.0079602e-46
9.0661681e-47
2.7233578e-43
-1.0359516e-43
2.2140404e-46
6.2120964e-44
-3.3987563e-40
9.0951163e-44
3.8584628e-40
-2.8329672e-44
1.2221261e-41
3.4827101e-38
1.1498468e-47
2.7860684e-42
6.5524982e-48
9.4355688e-46
5.8468864e-43
1.2146755e-46
6.1080164e-44
1.5224718e-50
1.4541058e-45
3.7382251e-46
3.2554635e-51
1.4759628e-48
3.9789688e-50
6.2396735e-50
9.6372053e-47
1.6175534e-48
-4.6672097e-47
1.6750852e-47
1.9828567e-49
-8.227825e-44
6.4189658e-44
1.7976316e-45
-1.252438e-46
1.1687232e-41
4.5039537e-43
2.5675985e-44
2.0795937e-48
5.7993915e-46
2.8210532e-31
5.6755439e-31
4.3978423e-29
0
2.2509564e-28
1.7991459e-28
1.3082325e-26
4.4975822e-25
7.7516775e-25
1.1097773e-22
7.7356141e-24
6.4001504e-23
7.2863159e-21
-6.9749022e-23
3.2162496e-27
1.2560579e-22
-3.1227159e-20
7.5054447e-22
8.1384004e-20
-7.189175e-21
4.9498243e-20
2.355232e-17
1.5937734e-21
2.5042814e-19
-5.1685962e-24
0
5.7764513e-32
3.474578e-30
2.4433947e-33
2.8157801e-29
4.0143705e-30
2.5700705e-27
5.3984865e-27
2.6218404e-29
1.3264234e-24
8.6360672e-26
1.7715324e-27
1.1119483e-22
-5.3535848e-26
1.0173781e-26
8.7642308e-25
-1.9404127e-22
0
1.9610586e-21
-4.6541231e-23
0
8.5341376e-20
2.0336508e-26
3.0060992e-21
3.3741014e-27
1.7257526e-31
1.3392158e-27
1.2286274e-25
2.1648192e-26
2.4799778e-32
1.9583251e-31
1.7084665e-29
9.8278817e-32
2.0999921e-33
2.888763e-29
2.5627065e-30
2.2055294e-31
2.2339462e-27
-8.5220407e-30
4.7352515e-31
8.0629821e-27
-4.736711e-26
0
1.342115e-25
-2.3448339e-28
0
1.9985542e-23
2.529941e-31
3.2053969e-26
1.7606173e-31
1.2782203e-29
7.9161023e-30
8.4685259e-27
2.4965857e-30
2.6603257e-34
3.234551e-31
2.2172789e-29
1.007042e-35
1.245357e-36
2.7214835e-33
2.3947806e-34
1.8917146e-35
2.9987363e-31
-1.9147949e-33
4.9914631e-35
4.767283e-31
-5.910616e-29
2.9643172e-33
1.342669e-28
-3.0146605e-31
1.7843782e-31
2.0468941e-26
4.4514116e-31
5.7262997e-29
3.9485894e-35
5.7145742e-33
6.9913928e-34
1.202861e-29
6.2271597e-33
6.4450316e-35
2.0825532e-34
5.34885e-31
6.7662478e-38
2.0031262e-36
1.2011362e-34
1.3504171e-38
0
2.6411767e-35
-2.0122184e-37
1.0807203e-38
4.9590006e-35
-3.1858563e-33
0
9.7976577e-33
-1.0730047e-33
0
1.0277663e-30
2.0986013e-35
2.4548133e-31
8.6679978e-38
3.7825149e-37
2.0477649e-37
6.9964321e-34
3.6522799e-37
6.5801643e-37
5.1332584e-38
2.3916407e-34
1.7565002e-40
5.657835e-39
3.5374326e-36
2.4890888e-42
2.8981598e-43
2.8819804e-39
-5.1253785e-41
2.4233558e-42
8.1064693e-39
-7.8848661e-37
7.1704027e-41
1.6250364e-36
-6.7746094e-38
0
1.4499691e-34
2.9742388e-39
2.0957543e-35
3.2223529e-41
1.5640182e-40
2.1770821e-41
2.0459691e-37
5.5592131e-41
5.161867e-41
7.8081162e-42
5.1429704e-38
4.8941947e-42
5.0364192e-43
3.0044513e-39
1.6182792e-45
1.3869371e-44
2.0095972e-42
-1.7804998e-44
9.5142397e-46
1.7723567e-42
-1.9487285e-40
2.8389854e-44
3.3706e-40
-9.0298444e-42
0
3.068589e-38
4.8050098e-43
2.9586834e-39
4.151741e-44
2.2215481e-44
2.2548686e-41
1.9706129e-44
5.7213481e-43
2.1249855e-44
7.5604144e-42
2.5105154e-43
1.0351047e-46
5.0201315e-43
1.3924104e-44
1.6655797e-48
6.1639809e-45
8.9304125e-47
-6.3416384e-48
7.4180801e-46
6.9168523e-48
-3.5361962e-44
8.9421862e-44
2.1514172e-45
-1.6294196e-45
1.0537412e-41
3.0714331e-43
5.4794345e-43
9.5363103e-48
8.0708639e-45
1.429466e-32
3.6277345e-32
2.3476561e-30
3.3439751e-33
6.1110621e-32
1.2856183e-31
1.3040572e-26
5.4871161e-24
7.3081496e-24
9.6444823e-22
2.9821534e-23
7.460164e-23
7.7073497e-21
0
7.9140862e-22
2.1196475e-19
-1.5280152e-19
8.635806e-24
2.3317472e-19
-1.8367678e-21
3.1807305e-19
8.0767117e-17
9.7699023e-24
2.5369089e-19
0
6.0918201e-23
4.788508e-22
4.7485938e-20
5.338752e-23
4.7040905e-28
1.6550576e-27
6.0918592e-23
5.3385732e-26
2.0073945e-28
1.1735121e-23
6.4332946e-25
3.4341882e-27
2.2475719e-22
-2.0768419e-25
5.9352394e-27
1.2530586e-21
-1.4137106e-21
2.5764325e-23
2.3921814e-21
-1.2316503e-22
0
8.6620018e-19
9.1456848e-23
7.718952e-21
1.5142323e-24
2.9715157e-26
0
2.4020425e-22
1.7807223e-24
1.3709307e-30
1.1900296e-27
8.2517982e-26
5.1157488e-31
2.1988294e-33
2.3094612e-28
1.1816685e-29
7.5109815e-32
6.4995809e-27
-4.26704e-27
1.4701418e-30
1.8484182e-26
-4.7003081e-26
3.2437516e-28
1.7570108e-23
-2.1865199e-25
0
4.2851727e-23
2.932266e-27
1.4420981e-22
1.9912887e-28
9.9601174e-30
0
2.6137968e-26
4.2212144e-29
4.1323315e-31
3.4487735e-31
2.1104175e-27
1.2843581e-33
3.5735532e-33
4.7897257e-31
6.8434791e-34
0
3.8010647e-31
-1.5517983e-32
4.5721536e-35
1.9706821e-30
-6.8716488e-29
7.092975e-32
9.2528989e-28
-7.1356419e-30
0
2.936262e-26
1.1412344e-33
2.9863977e-27
4.0877145e-33
8.9744298e-32
4.288394e-33
8.4751801e-29
1.3609049e-31
5.1972868e-35
0
1.311032e-30
1.3982603e-37
0
2.0140282e-33
4.1310616e-38
1.7416922e-39
3.7127602e-35
-3.6808955e-36
9.0324536e-35
1.4538378e-32
-3.1744406e-33
9.9310308e-36
8.3681942e-32
-9.0781626e-34
0
1.4738087e-30
7.9049685e-34
2.5944741e-31
6.5168666e-36
3.7866154e-37
1.2482898e-36
4.9909892e-33
7.7282262e-36
3.9840014e-37
0
2.2009443e-34
2.2587859e-40
0
3.6951732e-36
5.6763855e-42
6.3774418e-44
5.0862427e-39
-5.1410162e-39
5.1355535e-39
5.4781585e-35
-1.3355228e-37
2.7421156e-40
1.1000928e-35
-1.9768467e-36
0
2.0531648e-34
8.1553724e-38
1.1534962e-33
7.9291868e-39
1.2175221e-40
3.8847841e-43
1.4519215e-36
1.1265727e-39
1.2063964e-41
1.9796493e-45
5.1671792e-38
5.349919e-42
2.4351505e-44
3.1102126e-39
4.4440513e-45
5.4697676e-44
5.5123587e-42
-1.058294e-42
1.235397e-42
5.1427416e-39
-6.1070643e-41
5.0347775e-43
1.9748292e-39
-1.0867309e-40
0
4.7639982e-38
1.2328308e-41
8.4553587e-38
7.6485035e-43
1.724728e-44
1.8376368e-40
2.4853488e-43
7.1361513e-42
3.780458e-45
7.7351041e-42
2.2763263e-43
1.5960643e-46
5.5314467e-43
1.1173022e-44
5.9375943e-47
4.1592957e-44
9.9690752e-46
-4.230416e-46
1.2096945e-42
1.4670346e-44
-3.3473532e-44
6.565778e-43
6.7075357e-45
-1.6825103e-44
1.6184766e-41
3.4449183e-43
1.2568582e-41
1.7259705e-46
1.6628858e-43
4.1809078e-19
4.4649491e-19
5.0853861e-17
0
0
3.5494874e-20
1.105878e-17
4.0673841e-24
1.4404647e-23
2.7096723e-21
3.1231354e-21
7.1940984e-24
1.2431993e-21
5.6115871e-22
1.9016072e-20
2.6959974e-18
-8.5577149e-19
-2.1854201e-21
4.9638673e-16
-7.8792203e-19
4.0346392e-19
8.1466141e-17
-9.0376248e-21
3.8790148e-17
-6.7576356e-21
2.044478e-21
0
3.067861e-19
-1.6711995e-21
4.2237481e-23
1.0536208e-24
6.5673653e-20
5.0434972e-25
3.33978e-26
1.8322934e-22
1.1380069e-24
3.2424759e-25
2.6719491e-22
2.906357e-23
7.738948e-25
4.3126692e-20
0
8.2901683e-35
2.2687205e-22
1.2783701e-21
0
1.1384613e-18
1.188354e-26
1.6109319e-22
0
2.0159944e-26
0
9.9310183e-23
1.4700578e-25
2.5794495e-28
3.1230237e-29
1.1920301e-24
5.6953742e-28
3.7234629e-30
1.0800127e-25
2.3325908e-27
4.3981799e-29
1.5666859e-24
2.6812377e-28
7.442825e-29
7.94978e-25
-1.861338e-26
7.4358141e-26
8.9075395e-24
-1.2854032e-25
0
5.8194276e-23
3.0000615e-24
3.3454842e-22
9.7189484e-26
1.0555095e-27
0
4.1991995e-25
4.8046678e-28
3.5746323e-31
5.0199711e-29
6.5328788e-27
1.2513563e-32
5.50683e-35
4.5603373e-30
1.0765531e-31
3.8533572e-33
4.4301139e-29
1.0453459e-32
1.0359781e-34
7.6538342e-29
-4.3937632e-29
0
5.6511716e-26
-1.8123148e-27
0
2.9996598e-26
3.6251402e-29
1.532941e-24
4.3677681e-30
4.8496457e-31
1.9276914e-32
3.2424254e-28
6.2781115e-31
1.9440855e-32
3.8109383e-33
5.9582483e-29
8.8239459e-36
7.8025781e-35
1.2280458e-32
5.0869992e-36
4.27861e-37
3.9021702e-33
2.5614394e-35
5.7224161e-34
9.530517e-32
-3.6422544e-33
5.9147053e-34
8.9431028e-30
-5.0875009e-32
0
2.5535431e-30
1.3925797e-33
3.653121e-29
3.2491404e-35
5.9972165e-36
6.7599622e-36
2.4270476e-32
5.3757028e-35
1.2739166e-36
1.3327113e-36
4.0438363e-33
5.5861305e-38
0
4.620313e-35
5.9897168e-40
6.9771623e-41
4.9125829e-37
8.3779971e-38
1.0979248e-37
1.4299183e-33
-4.2688239e-37
8.2987588e-38
6.0369027e-34
-3.6506818e-36
0
3.6214841e-34
1.6313834e-37
2.5704722e-33
7.5633806e-38
1.7696606e-39
4.8754138e-43
8.2013266e-36
9.9572825e-39
2.3201974e-40
1.5490938e-40
1.3857748e-36
4.1116029e-42
4.458325e-43
5.5516203e-39
9.3680802e-44
1.8703597e-47
8.0464978e-41
1.2715079e-43
2.1885908e-41
1.1693266e-37
-9.5962005e-41
2.045571e-41
8.5273727e-38
-3.3806263e-40
0
9.0345214e-38
2.1087739e-41
2.4908303e-37
6.9323397e-42
1.9998808e-43
1.4119281e-39
3.3288232e-42
2.9183561e-41
5.6459397e-44
1.6380385e-40
2.2414432e-42
6.1643384e-47
1.0190635e-42
1.6833249e-44
2.1810232e-47
1.0301657e-44
2.1885499e-46
-7.0470673e-46
2.3181014e-41
2.4456693e-43
-2.612386e-44
2.1135354e-41
1.6388968e-43
-3.8781013e-44
2.3785815e-41
4.7668534e-43
3.3784747e-41
8.5462467e-46
6.1976119e-43
0
0
9.4242732e-17
3.1180455e-17
2.9918002e-19
3.4363741e-19
4.0810264e-17
2.6522809e-21
3.7480759e-21
2.860769e-19
4.0543824e-24
6.4149514e-24
7.9272314e-22
-8.3122932e-18
4.1146817e-20
3.9306031e-18
-1.3218041e-17
2.8098058e-17
1.2829461e-15
-2.2819162e-18
-5.196724e-19
5.0174602e-17
-4.6116232e-22
7.9742201e-17
3.2615377e-19
1.0132117e-20
0
5.5236607e-20
0
8.6181661e-21
1.6837235e-23
7.4907559e-19
2.7558865e-23
1.8126005e-25
1.7144056e-20
5.1401769e-23
3.4257349e-23
6.4425986e-21
0
0
5.7624957e-20
1.2453533e-19
1.1081286e-21
4.2512783e-17
0
0
9.0047558e-19
0
3.8691207e-19
0
3.6510558e-25
0
1.2541075e-22
-2.1715219e-23
2.1397701e-26
1.0810409e-27
1.8511736e-23
1.4016325e-27
3.8196896e-32
3.112575e-25
2.0692005e-25
1.0663456e-27
4.3821376e-23
2.5402666e-26
1.2289327e-27
4.9237792e-23
1.292698e-24
0
1.1170911e-21
9.3959249e-26
0
8.9368028e-23
0
1.0729212e-21
0
2.0360825e-26
2.7580151e-27
3.3010771e-24
-8.5095223e-26
3.4443915e-29
1.8200199e-27
1.2628734e-25
1.1712788e-31
1.2148708e-31
3.3401443e-29
8.8363187e-30
8.2477177e-32
1.1024621e-27
1.2337809e-30
1.3911799e-34
1.3133143e-27
5.2732053e-29
4.8140103e-31
5.4668933e-26
3.6104811e-29
0
2.2629046e-26
0
2.7943906e-25
6.6614158e-31
2.0324351e-28
0
1.6810227e-26
-6.3293415e-30
5.8462477e-30
2.2473491e-30
3.873696e-27
7.0093967e-34
1.6776708e-31
7.5832288e-30
3.4092308e-34
9.3792569e-38
8.7040406e-32
5.7913251e-34
1.7628615e-33
4.0971481e-31
4.3791598e-32
2.2252978e-31
1.0979777e-28
2.1052612e-33
0
4.3382958e-30
0
4.533102e-29
3.1467041e-34
3.8359006e-32
2.2937532e-33
1.010631e-29
-9.0011077e-32
5.7915794e-33
5.41708e-34
2.983621e-30
7.3441081e-35
9.8714493e-35
2.3303191e-31
8.677067e-38
1.2530591e-37
4.7039644e-35
1.9257072e-35
4.4214957e-36
1.3516272e-32
3.1346224e-34
1.3259919e-34
1.8146415e-30
4.3255776e-37
5.8468983e-38
2.7282933e-33
0
2.6328877e-33
2.109912e-37
3.2221168e-36
6.0203297e-37
2.3087219e-33
-1.01856e-35
5.1270375e-37
1.2430036e-37
5.4569909e-34
1.4949432e-37
1.299958e-38
9.648435e-35
5.1874133e-40
2.1915141e-41
2.8954897e-37
7.1761916e-39
5.0275037e-40
5.7281043e-36
8.5946339e-39
2.4827419e-38
1.3826458e-34
2.6723703e-41
1.1230354e-44
1.5900181e-37
0
2.8539052e-37
7.1390664e-42
3.3614832e-40
6.1022547e-37
-2.312035e-40
1.1557797e-38
9.8718495e-41
1.2533123e-37
1.7193402e-39
5.1874605e-42
1.2917884e-38
1.8411e-40
4.8346279e-44
2.8569753e-41
2.8993641e-43
1.0139733e-42
5.187237e-40
7.7963495e-42
1.8408497e-43
2.465325e-38
2.3234827e-40
4.569973e-45
1.9053466e-41
3.3498861e-43
5.1533288e-41
1.3925731e-45
5.1808165e-43
0
0
7.4835542e-16
0
0
5.2939361e-19
3.8695827e-17
7.6220944e-21
1.3085024e-21
4.5033631e-20
3.1583146e-19
5.8627135e-20
4.7491879e-17
0
-2.9498114e-24
4.190549e-18
-6.8998484e-19
7.6826044e-17
1.5522489e-15
-1.6212588e-18
-1.2886784e-19
9.339627e-18
-2.7251227e-19
6.6415585e-17
0
1.2007987e-20
4.1570818e-22
2.2312913e-20
0
2.7966223e-20
2.2467859e-23
1.2266304e-18
6.8338691e-22
1.7196372e-22
7.099375e-20
5.2282569e-22
0
9.0554452e-20
0
0
4.3370737e-21
1.2281059e-18
3.9400321e-21
1.5511816e-16
8.6009724e-22
0
1.9166321e-18
0
2.2528171e-18
0
1.4171412e-25
3.9870561e-25
3.1323019e-21
-2.5928437e-21
1.1093448e-24
9.3095596e-29
3.9850327e-23
3.4383715e-24
1.9983105e-26
5.5994639e-22
2.9093418e-25
0
3.5196112e-23
1.6867952e-25
-1.3175119e-27
6.9415949e-23
1.6916292e-23
3.1926942e-25
5.0511786e-21
1.08589e-23
1.38201e-25
7.1233844e-21
0
5.5867822e-21
0
1.4370685e-28
6.166758e-28
4.0628947e-24
-7.1273729e-25
2.2368857e-28
1.132842e-28
9.2259585e-26
1.0761905e-28
6.4249014e-32
2.0148687e-26
8.9417073e-30
0
1.2603847e-27
2.8251107e-34
3.2509074e-33
5.9653294e-30
1.1634089e-27
5.6859589e-32
3.728518e-25
1.7193615e-28
6.3803624e-30
1.6235872e-25
0
1.1410027e-25
6.2666874e-31
6.2085204e-31
3.6977272e-30
1.7478538e-26
-1.7589507e-28
1.1255419e-29
6.5183715e-30
2.0247204e-27
1.6485747e-33
9.0169263e-32
9.0340325e-30
6.9120367e-34
6.926893e-36
1.3011901e-31
9.3206524e-33
1.2811658e-32
2.3575921e-30
5.8900649e-31
2.507979e-30
4.5157723e-28
1.1183227e-32
3.0974303e-34
1.1451618e-29
9.672359e-34
1.0304138e-28
1.8992868e-33
9.8756337e-34
3.657127e-33
1.4422036e-29
-6.6257305e-31
1.0529797e-33
3.0055669e-33
9.4988976e-30
2.1181854e-33
1.4136569e-34
2.933147e-31
7.5378575e-36
2.5133235e-37
2.0334214e-33
1.2929973e-34
2.7657543e-36
2.9550189e-32
1.5248043e-32
4.6357604e-33
1.5040397e-29
5.1566397e-35
4.0260814e-34
6.3345269e-32
3.9032701e-35
8.0446701e-31
2.3249199e-36
8.4509778e-37
5.6193276e-36
1.6193462e-32
-1.0268024e-32
1.8736853e-37
8.0929481e-38
3.5541342e-33
1.2233753e-36
1.6721634e-38
2.491935e-34
6.7838516e-39
1.8943143e-40
2.0531089e-36
2.6015768e-38
0
6.0384527e-36
7.2658865e-36
7.3361971e-37
9.056636e-33
1.5910641e-37
1.3700246e-37
1.0388045e-33
5.2954261e-39
3.9533262e-35
8.2900862e-41
2.5622714e-37
2.510417e-34
-9.8121428e-37
7.465582e-36
5.6311692e-40
4.6890387e-36
8.6147933e-38
4.2837221e-42
2.9842988e-38
4.2047059e-40
5.5158006e-43
2.2004961e-40
1.9763341e-42
2.4578233e-42
7.0498304e-40
8.4544696e-42
5.8093344e-40
7.5288261e-37
8.0803579e-39
2.5021046e-41
8.9672247e-38
1.0770613e-39
5.3120456e-39
8.0533341e-45
3.9268625e-41
1.3429957e-17
-2.269538e-16
2.6061388e-15
6.3072316e-16
5.6146004e-19
0
2.6272769e-17
6.5203824e-19
3.772253e-22
1.9004383e-21
1.1256191e-17
1.9810418e-19
1.2548371e-16
-1.1813419e-16
-1.2506365e-20
8.6776682e-15
-9.5699104e-18
-1.4881627e-17
9.5875319e-16
-2.4136821e-19
-4.0762576e-20
3.0966278e-20
-6.7201684e-20
1.6340407e-17
-5.9945523e-21
7.3916574e-20
-1.9478741e-20
1.558829e-17
-2.425563e-16
8.5290902e-20
0
2.2731393e-18
3.4824362e-21
2.4786215e-21
1.088748e-19
9.1772581e-21
0
1.08795e-18
0
-6.7755489e-25
9.5669794e-22
1.0687277e-18
0
1.4631114e-16
1.0553454e-22
1.5804544e-20
9.4158523e-18
0
5.2154042e-18
-2.0685024e-21
0
4.8897728e-22
1.3058224e-17
-1.3075051e-17
7.6785776e-24
1.8102266e-24
2.1995442e-22
4.3005692e-23
1.9968152e-25
2.7030221e-21
5.2394247e-26
0
4.4660349e-23
0
-2.2830775e-29
1.8818317e-23
3.5335698e-24
0
2.2413564e-21
6.8313186e-24
0
8.6444123e-21
4.4352998e-25
3.632124e-20
-1.0982931e-24
1.3396583e-22
1.4248638e-22
1.1647232e-20
0
4.1046062e-25
1.0450847e-23
6.7682449e-22
9.297571e-29
3.9272418e-27
2.6224289e-24
1.5233426e-29
4.7589114e-32
8.7147574e-28
0
-2.5801141e-32
1.530568e-30
1.9682795e-27
0
6.7744674e-25
4.2506737e-28
0
4.8488301e-25
1.5532473e-32
5.5816707e-25
4.758554e-31
6.6666984e-23
3.2859746e-23
3.1093801e-21
-4.2312289e-24
1.5346111e-25
1.9585418e-24
2.5283058e-22
9.713402e-30
5.3893006e-27
3.4895508e-25
1.4680017e-32
7.511585e-32
1.0829019e-29
2.4612657e-32
-2.7209916e-35
4.0056195e-30
4.8047992e-30
2.0338439e-31
2.8488266e-27
1.3529849e-31
0
3.2605708e-28
1.0279641e-30
2.2205642e-28
4.0438667e-32
9.0571064e-24
2.860934e-24
5.1052255e-22
-3.505429e-27
1.3832128e-26
9.4082192e-26
3.3046494e-23
1.1203458e-30
6.0574333e-28
3.6724664e-26
1.2400061e-34
1.0261435e-32
1.1919427e-30
2.0715816e-34
4.3989443e-37
3.2627902e-32
6.6574327e-32
2.9024467e-33
3.9174383e-29
1.2012299e-34
5.2664311e-36
2.1293979e-31
2.9061651e-34
4.2810389e-30
1.806825e-35
2.3154144e-25
1.3048559e-26
1.7051377e-23
-9.0716402e-30
2.278288e-28
2.8908105e-28
8.24602e-25
3.9083831e-32
2.0654072e-30
1.503272e-27
1.0788509e-37
5.1004009e-34
4.9782356e-32
1.6130745e-38
3.100087e-40
2.5873443e-36
3.6646287e-35
5.5089145e-37
1.9097609e-32
1.4773576e-36
2.9330755e-38
1.702156e-33
1.4400406e-37
2.5208008e-33
1.0295036e-38
3.435146e-28
3.3839465e-26
-9.8221079e-31
7.3770013e-28
2.0275231e-31
1.1467133e-27
1.7755847e-29
7.7030701e-35
4.4072658e-30
5.2783075e-32
2.5796561e-38
1.0378429e-33
1.1916009e-35
5.1479888e-41
2.7039476e-38
1.4652894e-40
2.2725864e-39
1.2922326e-36
1.4183424e-38
1.4854199e-40
1.3454971e-37
1.5463706e-39
1.4842272e-37
8.8406957e-44
1.0492364e-39
0
1.1855284e-16
1.5721216e-15
1.9993988e-16
6.0116483e-19
0
7.0686587e-17
6.2479403e-19
-2.3861998e-23
1.4235557e-21
-8.867073e-18
3.2217516e-18
1.3351072e-16
-5.0652112e-16
1.3519872e-15
1.1374106e-14
-1.0310918e-19
-4.7320951e-17
7.897747e-16
-2.4590618e-22
-7.8728353e-19
6.8147809e-19
-7.4181016e-20
1.6367534e-17
-1.0375287e-22
3.068874e-18
0
1.3953553e-15
-2.1983523e-16
0
0
9.2310712e-18
2.4573217e-20
7.2718669e-23
2.1334579e-20
2.0054131e-19
1.0210701e-22
7.3286414e-18
2.1753714e-17
5.3316245e-19
2.1342123e-15
-8.9742436e-20
-6.6333858e-21
1.0477568e-16
-1.9746677e-19
-9.3079387e-21
3.0934236e-17
-5.3418756e-20
4.8482283e-18
-6.2167243e-20
0
0
3.640163e-16
0
0
-5.2684756e-23
6.672487e-20
5.0247959e-24
1.0129837e-24
2.2071631e-21
1.9514393e-24
5.5591509e-27
1.5057139e-22
4.4096649e-21
1.0534218e-22
5.2865358e-19
4.2556112e-26
-7.7255031e-26
1.810194e-23
-6.8335245e-22
-8.8970344e-26
2.0404877e-23
-5.8897267e-25
6.78876e-20
-2.7100793e-22
3.4430713e-20
0
2.4137068e-18
0
0
3.83929e-22
4.1820849e-20
2.9239072e-28
4.4626982e-26
9.528329e-24
6.7638906e-29
1.9768728e-30
8.0918046e-27
4.6291188e-25
1.4839119e-26
1.0487415e-22
2.7999288e-27
7.4573257e-28
1.4549138e-24
-1.4886714e-29
-1.4706478e-29
8.2873961e-25
-5.709176e-29
2.5416783e-27
-5.7785258e-27
6.2784825e-22
0
3.8504661e-20
0
2.5867515e-24
3.1329876e-24
3.4290187e-21
6.2247138e-29
7.3732696e-26
6.4862849e-24
7.6781397e-31
1.7485022e-30
1.9326232e-28
9.6153014e-29
3.7138175e-30
1.4734355e-26
1.4602368e-29
2.04609e-31
7.2849078e-27
-4.2375662e-29
0
2.7206003e-27
1.6724958e-29
1.0527903e-26
-3.3350766e-30
6.0824087e-23
1.75657e-23
2.9313195e-21
-9.872793e-25
1.7268122e-25
3.0785639e-25
2.63238e-22
5.8291337e-30
7.5251191e-27
5.6980555e-25
1.7343351e-32
1.7968322e-31
1.7534181e-29
2.0022342e-32
9.9590038e-34
3.7894171e-30
1.8367691e-31
1.1882937e-34
5.4547887e-29
-6.858616e-32
0
4.9600115e-31
0
4.8561687e-29
-7.4527742e-35
2.1758991e-24
2.4885873e-25
1.2779115e-22
-7.478492e-28
3.3900379e-27
3.1006599e-27
8.0502944e-24
3.9930182e-31
1.8626954e-29
2.3607723e-26
3.1983204e-35
8.0628508e-33
7.0775438e-31
4.4032984e-36
2.6688255e-37
1.0413837e-33
7.1063465e-35
0
1.9582532e-32
-1.2265612e-35
0
2.2026551e-33