/*--------------------------------*- C++ -*----------------------------------*\
  =========                 |
  \\      /  F ield         | OpenFOAM: The Open Source CFD Toolbox
   \\    /   O peration     | Website:  https://openfoam.org
    \\  /    A nd           | Version:  13
     \\/     M anipulation  |
\*---------------------------------------------------------------------------*/
FoamFile
{
    format      ascii;
    class       volScalarField;
    location    "0.11";
    object      alpha.water;
}
// * * * * * * * * * * * * * * * * * * * * * * * * * * * * * * * * * * * * * //

dimensions      [];

internalField   nonuniform List<scalar> 
51200
(
0
0
0
0
0
0
0
0
0
0
0
0
0
0
0
0
0
0
0
0
0
0
0
0
0
0
0
0
0
0
0
0
0
0
0
0
0
0
0
0
0
0
0
0
0
0
0
0
0
0
0
0
0
0
0
0
0
0
0
0
0
0
0
0
0
0
0
0
0
0
0
0
0
0
0
0
0
0
0
0
0
0
0
0
0
0
0
0
0
0
0
0
0
0
0
0
0
0
0
0
0
0
0
0
0
0
0
0
0
0
0
0
0
0
0
0
0
0
0
0
0
0
0
0
0
0
0
0
0
0
0
0
0
0
0
0
0
0
0
0
0
0
0
0
0
0
0
0
0
0
0
0
0
0
0
0
0
0
0
0
0
0
0
0
0
0
0
0
0
0
0
0
0
0
0
0
0
0
0
0
0
0
0
0
0
0
0
0
0
0
0
0
0
0
0
0
0
0
0
0
0
0
0
0
0
0
0
0
0
0
0
0
0
0
0
0
0
0
0
0
0
0
0
0
0
0
0
0
0
0
0
0
0
0
0
0
0
0
0
0
0
0
0
0
0
0
0
0
0
0
0
0
0
0
0
0
0
0
0
0
0
0
0
0
0
0
0
0
0
0
0
0
0
0
0
0
0
0
0
0
0
0
0
0
0
0
0
0
0
0
0
0
0
0
0
0
0
0
0
0
0
0
0
0
0
0
0
0
0
0
0
0
0
0
0
0
0
0
0
0
0
0
0
0
0
0
0
0
0
0
0
0
0
0
0
0
0
0
0
0
0
0
0
0
0
0
0
0
0
0
0
0
0
0
0
0
0
0
0
0
0
0
0
0
0
0
0
0
0
0
0
0
0
0
0
0
0
0
0
0
0
0
0
0
0
0
0
0
0
0
0
0
0
0
0
0
0
0
0
0
0
0
0
0
0
0
0
0
0
0
0
0
0
0
0
0
0
0
0
0
0
0
0
0
0
0
0
0
0
0
0
0
0
0
0
0
0
0
0
0
0
0
0
0
0
0
0
0
0
0
0
0
0
0
0
0
0
0
0
0
0
0
0
0
0
0
0
0
0
0
0
0
0
0
0
0
0
0
0
0
0
0
0
0
0
0
0
0
0
0
0
0
0
0
0
0
0
0
0
0
0
0
0
0
0
0
0
0
0
0
0
0
3.2680531e-28
1.1938619e-49
-9.1084426e-55
-1.7372978e-60
-8.6864889e-61
3.6136817e-47
1.2065652e-38
1.1666415e-28
1.7608955e-30
0
5.9417395e-45
1.0700735e-51
1.2070728e-50
8.8805895e-56
4.5817964e-45
2.0897762e-29
7.777363e-46
2.3276368e-37
1.3663898e-43
1.0273274e-48
4.2358831e-44
7.7278664e-46
1.6990972e-34
9.1791908e-31
4.9302419e-48
1.8231061e-39
1.4935427e-43
3.8930496e-50
1.3419818e-48
6.2748915e-43
4.7538303e-36
6.367856e-34
3.7322872e-51
1.9044437e-46
5.4432673e-45
4.6548383e-51
1.0843765e-50
7.6439102e-42
2.1984292e-39
1.5538776e-46
5.5738286e-51
3.5915795e-46
7.8969036e-46
1.519701e-47
1.8405371e-46
1.113979e-43
6.2484951e-53
1.2441419e-47
3.1229946e-54
2.4960999e-47
2.7105845e-47
2.0266295e-48
5.5182489e-48
3.8575465e-49
3.5375348e-53
6.8250424e-49
6.8016069e-60
9.0918133e-50
3.6176205e-50
1.6289893e-50
8.1680661e-52
3.320888e-66
1.2845334e-51
2.4748325e-54
2.8713437e-18
5.651587e-19
2.3837041e-16
3.4707839e-15
1.4672057e-16
1.1942523e-42
1.194146e-42
1.6349756e-37
1.9371688e-20
3.1641483e-21
1.2430927e-18
1.4713804e-17
6.1067079e-19
1.194146e-42
2.4965483e-42
2.5278536e-37
1.7274498e-22
1.2131559e-24
4.8626381e-26
1.5440256e-24
9.8673772e-32
2.5051782e-42
1.1960235e-41
7.8539505e-34
1.4783064e-24
2.0640782e-26
3.9323714e-33
4.8081227e-30
3.9473736e-30
2.1921752e-41
8.2991345e-39
5.6724873e-29
7.4369273e-28
2.8052387e-29
1.4137821e-35
1.2331662e-32
9.6737124e-34
3.5990776e-39
2.7779316e-32
5.3001674e-30
2.2392644e-35
5.2010704e-39
2.4702955e-38
8.5085684e-38
2.6856499e-38
5.9934537e-37
1.4362414e-33
2.4137671e-32
3.035872e-39
3.4220085e-42
6.4122565e-41
9.7918916e-43
2.109026e-43
4.4501582e-38
3.7665392e-36
9.8127613e-40
3.9712522e-46
1.1409451e-49
1.4251787e-43
6.7021103e-48
1.3938429e-46
1.4486297e-40
9.7088921e-45
2.3875601e-44
3.9272406e-18
3.2101718e-16
1.4079919e-14
3.332049e-12
1.4829571e-13
2.8685428e-11
0
3.0329935e-10
2.175801e-20
4.4486003e-18
6.362099e-17
1.1676178e-14
1.0918164e-15
1.1668932e-13
-2.1506705e-33
1.2581102e-12
2.0343758e-20
4.8297337e-22
4.3967566e-24
2.5008056e-23
3.1753075e-23
7.1929038e-18
1.5980445e-15
1.3187519e-28
6.2165207e-22
4.0996131e-26
1.8501185e-29
3.2151374e-27
1.0973425e-27
1.8101086e-20
6.8587733e-18
3.078358e-29
4.6396248e-25
8.7633961e-29
3.997055e-33
5.645342e-31
2.7107126e-32
1.5474225e-26
6.2926243e-29
5.3743796e-30
1.4773633e-32
5.4470854e-36
2.1670652e-36
1.3598159e-34
6.5451791e-36
2.786405e-32
2.0747726e-29
1.1585189e-33
3.8200749e-36
3.4986506e-37
8.3839223e-40
4.2889507e-38
7.1517549e-39
1.5118358e-35
1.4509115e-33
2.8357901e-36
2.0178391e-34
3.8748134e-37
9.8080687e-41
1.4764176e-40
4.8526363e-42
6.5153444e-38
6.6882487e-38
6.5391092e-36
3.109649e-19
5.4612579e-17
2.0190452e-13
1.8516569e-11
7.9429959e-16
1.9472362e-10
3.0067658e-08
1.3542934e-09
8.015511e-21
3.6487995e-18
8.6918526e-16
7.8244324e-14
7.9233174e-16
1.6686953e-12
6.3856879e-11
4.3586815e-12
8.4520546e-17
7.7765443e-21
1.7240799e-24
1.2303346e-22
4.2358045e-18
3.3484165e-17
1.1081464e-14
3.8273763e-20
5.2248019e-18
7.7046738e-21
3.2349293e-26
3.3127523e-26
3.129729e-26
5.6704499e-20
1.1038305e-17
3.742479e-20
4.9457751e-21
1.9064522e-22
2.8218662e-26
4.1505813e-30
1.6715522e-30
4.6269221e-28
1.4354371e-25
1.6658646e-22
1.5792714e-27
9.7251348e-26
1.4481255e-27
1.1407504e-32
3.3488255e-34
4.542327e-30
7.5951851e-28
1.817157e-30
2.014384e-32
2.5896297e-33
9.4322127e-31
2.8400731e-34
4.1361871e-36
7.8714791e-34
5.8939565e-31
7.030141e-33
2.0820132e-34
3.8000809e-37
3.1558615e-38
1.0741033e-36
1.0227578e-39
9.6507355e-38
8.0513128e-34
1.2883084e-36
1.6981156e-20
1.6981156e-20
2.1846642e-12
2.4098179e-11
2.8097875e-10
2.8643959e-12
2.332371e-07
1.7887096e-11
5.8082887e-11
2.9336561e-20
7.7449394e-15
2.2091135e-13
7.0049732e-13
2.8659775e-12
8.6375446e-10
1.788904e-11
3.3981477e-13
5.0674989e-17
2.022072e-22
3.203191e-19
2.4243611e-20
1.355436e-14
2.3141811e-14
1.2483387e-13
1.0101479e-17
8.8116853e-19
1.7857345e-22
7.8086909e-25
2.0230631e-24
1.2414932e-21
1.7866778e-17
3.3835299e-22
4.0450144e-20
4.3885538e-22
5.4634782e-25
9.4601056e-29
3.5760725e-24
4.9794378e-27
5.130755e-23
1.1685037e-22
5.4736344e-28
7.7213091e-26
1.4859845e-27
7.0686775e-33
1.1346479e-26
4.3990314e-31
1.3776534e-26
5.4033847e-25
5.8286855e-32
7.6700485e-33
1.0408592e-30
1.2547675e-33
4.4399662e-34
3.4548923e-33
5.5834669e-30
7.9831512e-33
1.0022411e-32
4.282961e-34
9.6021211e-37
1.4558269e-35
2.3153225e-36
3.0201997e-36
2.6106778e-33
1.8067716e-35
2.7786299e-07
9.7964692e-09
4.4098241e-12
2.5975159e-12
6.9350048e-09
4.8850166e-07
3.5500097e-07
2.7713476e-07
7.4230826e-10
5.0513174e-11
1.131085e-13
2.6027576e-13
3.2381295e-11
8.4865274e-15
1.6826056e-09
3.2077078e-13
1.3404716e-13
3.0227813e-18
5.9361717e-17
5.7139967e-16
2.9030773e-20
8.4906416e-15
3.4122535e-14
3.2071627e-13
2.2945849e-16
2.7515536e-18
4.8805888e-24
1.725974e-24
1.4518291e-23
2.788862e-17
2.0101926e-17
1.5610131e-15
1.4474128e-19
1.7634885e-20
3.0327188e-24
2.2254843e-28
2.5498993e-23
1.5857147e-21
5.4653737e-22
3.870556e-24
2.9467176e-27
6.4516605e-28
1.0743023e-26
2.898878e-31
3.1121364e-25
3.640059e-29
5.8968495e-26
2.223828e-27
3.8290902e-31
3.6747357e-32
6.969443e-31
4.0497071e-35
2.0355565e-31
6.655934e-33
2.1174327e-29
3.8133168e-32
1.5372348e-31
5.406356e-34
3.3297783e-36
5.5454351e-37
7.480346e-36
3.58156e-35
5.5942887e-33
1.2108974e-34
3.2490608e-07
1.6431844e-07
9.9197429e-10
2.5068948e-12
8.8981304e-09
4.3450953e-06
2.7833669e-07
5.7799551e-07
3.080237e-10
7.8528347e-10
1.1716885e-11
3.8742307e-12
6.4977563e-11
2.751109e-08
1.3364196e-09
4.9282229e-10
1.7908266e-13
9.1737012e-17
1.6738975e-19
3.1909324e-14
2.2771467e-14
6.3699096e-17
5.9318947e-14
9.6785324e-13
3.465834e-15
8.9920492e-17
3.5251437e-21
1.4692861e-21
8.1434915e-23
1.8310241e-19
1.6495456e-17
6.2936874e-16
1.3608585e-17
2.2786254e-18
3.2843307e-21
1.5900774e-26
9.2784602e-23
2.9921312e-20
1.6838651e-21
1.803327e-20
4.8379305e-21
1.2343501e-21
8.4401459e-23
4.5346813e-27
3.3818086e-24
4.1438441e-22
6.6020079e-25
3.675657e-25
1.68459e-28
2.7199881e-29
1.7352575e-26
5.6705342e-29
1.561533e-27
3.4621236e-28
1.3318395e-31
5.4563307e-29
7.2719343e-31
7.6417974e-32
5.4625974e-34
6.7969043e-35
5.8272184e-34
3.7290164e-32
5.2496469e-34
2.0936093e-34
1.2836398e-06
1.6805167e-07
2.6683112e-10
7.8324544e-08
4.8526105e-12
5.3832307e-06
9.7372577e-08
5.7301119e-07
7.4512522e-13
1.447467e-09
5.8606078e-11
5.474215e-11
4.8528201e-12
1.8961299e-07
2.0223904e-09
3.21958e-09
4.4142648e-18
1.0366056e-17
2.334336e-13
2.5387627e-14
5.0309667e-14
4.6699418e-16
4.7303863e-12
4.6806116e-12
1.9517076e-20
7.0741836e-18
4.8317258e-21
3.8873591e-19
4.4613334e-22
3.5561678e-21
5.0152208e-20
1.5924505e-17
1.6816223e-23
4.5188884e-19
3.4095142e-21
2.398162e-23
7.5514958e-22
1.1784085e-19
2.693125e-23
6.1530696e-20
3.1189849e-26
8.0629247e-27
1.0667061e-22
5.5697552e-25
1.0694757e-23
4.0253714e-21
1.8351404e-23
3.0247518e-22
7.7302665e-27
5.279374e-28
5.3348921e-26
4.7290106e-28
1.8754362e-27
1.8960058e-24
3.0949546e-25
3.2117045e-30
5.9727836e-26
9.896272e-28
3.4100459e-32
1.1328447e-34
6.4737294e-32
3.7856499e-31
5.8039182e-30
9.0471756e-33
1.5315253e-05
1.109678e-07
4.9396171e-12
3.218352e-07
1.1122682e-05
4.1808142e-06
8.9930434e-11
1.2299116e-07
2.0447454e-11
2.4625745e-09
1.3488333e-10
6.7572513e-10
2.7077035e-15
1.8432255e-07
6.8299709e-09
1.2568344e-08
4.2873747e-15
6.9105542e-14
2.1404632e-12
2.7005108e-14
2.6913778e-15
8.5029431e-13
8.1708422e-12
3.2638762e-11
5.0321343e-12
2.3791741e-13
8.2932285e-16
1.7081417e-19
8.0635574e-22
3.061726e-16
1.6728267e-16
1.2354809e-19
1.3559792e-12
7.7338768e-14
8.6952669e-17
8.8071673e-23
1.5033196e-21
8.672819e-19
9.4725559e-20
1.1422739e-19
1.9683087e-13
8.9881823e-15
7.9969692e-18
1.0012096e-24
1.2545375e-23
1.2459028e-20
6.6479796e-23
1.6782304e-21
5.5844097e-15
1.9792055e-16
3.0241542e-19
3.1256327e-26
3.7861681e-28
6.3212805e-24
6.4084314e-25
7.5525613e-25
8.8020232e-18
2.2247205e-19
8.1338189e-22
1.5956844e-25
2.8754977e-32
2.3810624e-30
8.4758527e-30
2.7071944e-33
1.8680208e-05
1.9619779e-07
2.982422e-12
4.2689224e-07
3.4091456e-05
2.5320167e-06
8.8686042e-11
8.7240808e-11
1.5423193e-06
1.4105457e-08
3.5354084e-11
5.4709019e-09
1.4779428e-06
1.4276113e-07
4.6244435e-08
1.1434152e-08
4.1111983e-07
1.7998963e-11
1.925477e-12
8.8148401e-17
1.3977452e-15
5.5399526e-16
4.4646429e-16
9.76272e-11
2.3382991e-09
3.0092161e-11
2.6168583e-15
9.7584869e-20
5.8817005e-18
6.5975607e-16
4.4594566e-16
1.3925276e-18
1.7149627e-11
1.1296978e-12
1.7609843e-15
6.3057882e-21
1.4819612e-21
2.9444303e-18
9.7920989e-19
8.7140828e-18
1.1694809e-12
7.4880839e-14
1.3542393e-16
3.3584539e-22
9.4582451e-25
2.2739456e-20
2.0467857e-22
1.9501569e-20
4.4192493e-14
2.0522335e-15
5.0485186e-18
1.3891456e-24
3.1177088e-28
6.9985389e-24
8.4960413e-25
6.7388707e-24
2.254825e-16
6.4281915e-18
1.0470056e-20
3.1042298e-24
2.1344536e-30
1.70366e-28
6.4063283e-29
8.4827166e-32
9.0122663e-06
9.5047688e-07
9.9406578e-13
3.4518286e-07
3.4691624e-05
4.0717567e-06
1.4300969e-06
3.5781249e-06
9.9627585e-06
1.2351774e-09
9.4079259e-13
1.2597583e-08
3.5333092e-06
1.1918055e-07
5.9012129e-09
3.5546663e-11
6.6315289e-07
1.018811e-09
9.186799e-13
7.5718393e-13
1.0556165e-14
5.344454e-16
4.9052875e-16
3.5543138e-11
1.9832974e-09
2.8294765e-11
1.3450954e-14
6.0927169e-19
1.426816e-17
1.2070301e-15
1.1869347e-15
2.6521415e-18
1.7149013e-10
7.2459696e-12
1.142179e-14
6.8472124e-20
6.6938634e-21
3.9684363e-18
2.9579432e-18
3.5117952e-16
1.4767725e-11
7.3134823e-13
9.6683536e-16
3.1468642e-21
8.8619536e-22
2.3992771e-20
2.6310186e-22
8.9316268e-20
3.7467113e-13
1.622138e-14
4.6537432e-17
1.1230213e-23
5.8110356e-25
7.0861797e-24
1.3268097e-24
3.0411121e-23
5.9442308e-16
2.4329226e-17
8.7945993e-20
3.0406386e-23
1.7175325e-26
5.5998002e-28
1.7399211e-28
1.9941357e-30
2.7804084e-06
1.2423105e-06
1.1583718e-08
8.3802801e-08
3.4691624e-05
6.4198297e-06
7.159653e-06
3.8233809e-05
1.3453914e-05
4.588508e-11
5.5886797e-11
6.5608448e-09
6.2406662e-06
2.2647271e-07
5.3887553e-16
1.761481e-09
1.3892629e-10
3.3076693e-09
1.3530503e-14
4.7826552e-11
1.7984705e-14
5.3887554e-16
4.9098064e-16
2.2545468e-16
8.3671598e-10
1.3530503e-14
1.3527514e-14
1.1100075e-14
2.4596765e-16
7.1578574e-14
2.2382769e-15
2.4631973e-18
6.0138185e-10
1.9026253e-11
3.424209e-14
9.954117e-20
6.5096688e-20
2.2739632e-20
7.5028958e-18
2.5255425e-18
3.4382971e-11
1.6601436e-12
2.2519764e-15
1.5341826e-20
2.3583489e-21
2.2692978e-20
1.6803168e-22
1.5284833e-18
3.3171562e-13
1.7897371e-14
6.0790657e-17
4.0650872e-21
1.5724568e-24
6.6571262e-25
4.4333706e-22
6.2248212e-19
4.7202374e-16
2.0127993e-17
8.4731851e-20
2.0057403e-22
1.0223478e-24
9.9726499e-28
6.9284351e-23
4.2047966e-20
1.8611474e-06
7.628691e-07
5.283062e-09
1.6251214e-10
3.4691624e-05
6.8180131e-06
8.9415131e-06
4.418543e-05
7.9805652e-06
4.5637086e-11
4.5648316e-11
1.0211928e-14
2.5264531e-05
8.7276982e-07
1.8536895e-11
3.0358483e-05
1.3764351e-10
4.050086e-09
2.0954926e-12
5.3389327e-16
1.1024782e-06
8.0362034e-09
1.0440475e-10
2.1246228e-06
1.363551e-10
3.3930832e-12
1.3697224e-14
3.7188184e-13
3.0005195e-14
6.4486085e-15
8.0804696e-14
3.1428811e-14
1.3670134e-09
4.1552311e-11
7.6308119e-14
6.5594648e-15
4.5015971e-18
6.429849e-15
2.0824336e-22
1.1775276e-17
2.6181027e-11
2.2814072e-12
4.1545254e-15
5.9691958e-19
4.2087844e-21
7.4386263e-19
1.6792764e-22
7.1011609e-21
1.9980603e-14
1.3465342e-14
9.1250787e-17
3.3087927e-20
2.7572589e-24
1.4064603e-21
1.6792747e-22
2.6885364e-21
2.282708e-16
8.7493011e-18
5.4455533e-20
2.2615311e-21
1.8101682e-26
3.6450841e-28
3.4072462e-23
5.9841298e-20
2.0212164e-06
7.9995334e-08
2.7595533e-12
9.2509966e-08
2.2031101e-05
5.1482168e-06
1.614614e-05
4.4184849e-05
1.4322789e-06
6.7187172e-10
1.4374153e-11
5.3389327e-16
2.8858506e-05
2.9816119e-06
1.1250109e-10
4.4185359e-05
2.3811441e-07
3.7548026e-09
5.5186736e-12
1.9262458e-16
3.174079e-06
7.5984164e-08
6.2902481e-09
3.6922173e-05
2.0884981e-10
1.7164335e-11
4.6011189e-14
1.8742431e-12
1.177595e-13
6.4187178e-15
9.2997753e-11
6.7378479e-06
1.8228584e-09
8.6067717e-11
1.5430092e-13
3.0777762e-14
6.5540257e-16
6.3546128e-15
3.6317803e-12
2.6182162e-12
2.4260489e-11
2.864539e-12
9.2505404e-15
5.5528664e-18
9.4665377e-16
3.1580859e-17
4.2071456e-14
3.1236432e-15
4.4670396e-17
5.6902541e-15
1.0580659e-16
2.5506515e-19
1.183772e-17
9.4294185e-20
9.0560718e-21
2.5322549e-18
8.5150943e-17
3.1915987e-18
3.2227718e-20
1.6944648e-20
4.2974453e-23
9.8333166e-24
1.9379565e-23
1.7996904e-22
2.1585287e-06
6.0626336e-10
4.5415309e-14
1.2970865e-07
2.1329772e-06
1.8507629e-06
1.8212331e-05
1.8940597e-05
3.3445663e-08
4.5415309e-14
2.2854613e-14
2.9391189e-16
2.8859167e-05
3.1066539e-06
2.0192698e-07
3.6995459e-05
6.124823e-07
7.5269601e-10
3.9336453e-12
9.1332655e-17
6.5553395e-06
7.3804429e-07
1.1990905e-07
3.9144393e-05
2.9047889e-09
1.1026679e-11
2.3259159e-13
5.8053754e-14
1.9520734e-08
1.3304616e-08
8.5057336e-09
1.5709592e-05
1.7625935e-09
1.3737566e-10
3.1163518e-13
8.5667738e-14
9.1197396e-16
9.3829498e-16
1.3207992e-10
3.4858783e-09
1.1053575e-11
3.5808733e-12
3.1113371e-14
1.8802835e-15
9.1050446e-16
2.32773e-15
5.5861356e-14
9.9853001e-12
4.2182727e-17
6.6842489e-16
1.7579901e-16
8.2721945e-18
3.831378e-18
2.6109828e-17
1.7697045e-17
1.7296365e-14
4.2085113e-17
1.7059088e-18
5.2233889e-22
5.505459e-20
4.8100242e-21
4.654444e-20
1.0031493e-19
1.9926357e-17
2.0204299e-06
5.7531353e-10
2.1921576e-08
4.6996577e-08
1.2496319e-06
1.5571697e-06
9.6695448e-06
2.9889476e-06
4.102897e-08
2.362774e-08
2.5281009e-08
9.133266e-17
2.8858515e-05
3.6120485e-06
1.5972852e-06
2.165254e-05
9.2457306e-07
5.9190211e-11
9.1334105e-17
8.557345e-17
2.1853886e-05
2.3853045e-06
1.5438427e-06
3.5828973e-05
2.9161763e-08
7.6403921e-12
1.3668538e-13
7.9814235e-17
1.9842318e-06
2.0934379e-07
3.3868836e-08
2.6123023e-11
1.3920079e-09
1.4539104e-10
3.211696e-13
1.5942145e-13
4.8097099e-15
1.159357e-10
8.5725713e-15
1.3297481e-11
2.8419602e-12
6.8961353e-12
7.4480207e-14
1.4235786e-14
4.6166202e-16
1.9946761e-13
1.2035544e-13
1.4350815e-12
3.9985264e-16
5.0363761e-15
1.214581e-15
1.6941533e-16
2.4259287e-18
2.3831611e-15
3.0021881e-15
2.2686747e-14
3.676142e-17
8.5756967e-21
4.5505725e-19
1.3837456e-18
3.0433121e-18
1.8283927e-17
3.0126212e-17
9.0236491e-17
1.3779264e-06
3.0304502e-10
1.4507648e-08
2.885396e-10
1.5248106e-05
2.5667225e-06
3.8689946e-07
2.9678096e-06
1.2864067e-07
4.72353e-08
3.8442518e-08
3.5016608e-13
1.0785519e-05
3.7319899e-06
3.4721769e-06
9.6092496e-06
5.1235338e-07
4.3792393e-14
3.0846413e-16
8.5103042e-17
1.5990248e-05
4.330686e-06
1.765695e-06
2.4790232e-05
2.3664873e-08
1.0027707e-11
7.9814466e-17
7.6470406e-17
1.9852247e-06
4.2389694e-07
2.3286841e-08
1.0449644e-13
6.4450729e-10
1.0554041e-10
2.3517934e-16
3.7064504e-17
4.2249099e-16
5.4037976e-15
3.7718813e-15
2.3104486e-14
3.1600613e-17
3.0830903e-12
9.0679533e-18
8.9407843e-19
3.7112864e-17
9.4451458e-14
7.8024695e-14
1.8638609e-13
6.5215124e-16
6.5835972e-16
6.037306e-18
9.94396e-21
5.0595487e-19
6.8264964e-16
1.5983416e-15
9.4085068e-17
2.0609624e-17
2.6830714e-22
3.1366526e-22
3.3608647e-22
4.9084299e-21
5.7012412e-18
1.8391871e-17
1.8374984e-17
9.3373547e-07
3.0304502e-10
3.0304502e-10
0.00014749642
2.3129037e-05
3.6436421e-07
2.8949306e-07
2.5698027e-06
7.1542546e-07
9.6993127e-09
1.562029e-10
0.00012298246
1.1643796e-05
1.5895306e-06
2.7977726e-06
5.0895506e-06
8.2273015e-08
1.3553699e-13
1.9278598e-13
7.2632687e-05
1.0319291e-05
2.8027469e-06
1.5756696e-06
1.6453209e-05
9.5865093e-09
2.9120682e-13
3.3021609e-13
2.3341031e-05
1.2880429e-06
1.8338844e-12
2.8034017e-08
3.4396784e-11
2.7613082e-17
8.3354275e-15
1.0438568e-15
3.7195231e-08
1.8307398e-12
3.5641961e-15
2.255901e-16
9.1243515e-10
2.4960897e-18
3.7976463e-18
1.9945011e-16
3.7064502e-17
4.8319417e-15
1.2510506e-17
5.3311222e-18
7.41164e-12
1.9193021e-18
2.593712e-21
1.1801618e-18
5.0595487e-19
1.2470923e-17
5.6724981e-20
8.2183918e-19
2.425106e-11
5.3880973e-20
1.0118351e-22
4.8816624e-22
4.90843e-21
1.3889603e-20
8.9060636e-22
2.388362e-21
4.1087396e-12
4.38293e-07
3.0304502e-10
5.2635828e-05
0.00026117638
0.00018546313
7.1828736e-06
2.8949306e-07
1.5889437e-06
1.1814885e-06
2.2683611e-10
6.1108797e-05
0.00026117638
0.00017456379
7.5354411e-06
4.614065e-07
3.722519e-06
8.6548972e-09
4.9543677e-12
5.4764177e-05
0.00026112304
0.00017176646
1.6810101e-05
7.4553146e-08
1.2039093e-05
9.8543773e-10
4.1386116e-12
6.779935e-05
0.00026096627
0.00011456762
6.2828655e-06
5.1548494e-11
6.8115651e-11
1.2018404e-12
4.0529123e-13
5.728552e-05
0.0002606683
0.00019337578
1.9864252e-05
3.8429758e-15
5.1560834e-11
2.7613105e-17
1.1330624e-13
5.3389962e-05
0.00026006237
0.00025945468
1.9080101e-05
9.5132653e-14
1.7853965e-13
1.8410802e-17
3.6214381e-13
4.8303496e-05
0.00021869623
0.00021442921
1.6560278e-05
8.8108368e-15
4.2134854e-12
4.0246762e-14
2.7580373e-14
3.0686358e-05
9.883145e-05
7.49199e-05
7.8662102e-06
1.8468037e-14
1.1352215e-12
5.5347002e-08
4.1323278e-10
0.00010314643
5.4027034e-05
5.0761816e-05
5.2865663e-05
7.9214515e-06
7.5278742e-07
6.0205067e-07
2.6217308e-06
0.00010313878
5.7374997e-05
2.8937957e-05
2.8853418e-05
3.5676582e-06
3.1696063e-06
7.1107347e-10
3.6734693e-06
8.3412845e-05
4.6259274e-05
3.0028326e-05
3.0694885e-05
4.2647683e-06
9.1390825e-06
2.830813e-10
3.6396216e-06
3.4044052e-05
3.7796331e-05
1.4178402e-05
1.490582e-05
1.7027263e-06
6.3894014e-07
1.1863075e-08
9.1324798e-06
6.1298797e-05
2.9909387e-05
8.9841049e-06
8.8382161e-06
8.8098464e-06
1.5271184e-06
7.5472889e-08
5.6998092e-06
7.1448848e-05
3.6019233e-05
2.6482412e-05
4.954044e-05
2.3367584e-05
1.6113296e-11
5.358408e-12
1.2422552e-05
7.1376435e-05
5.0360225e-05
4.6370833e-05
6.5255286e-05
1.1014679e-05
2.6878589e-11
8.6145325e-10
1.1854571e-05
7.1275099e-05
5.3387757e-05
3.3551117e-05
2.7336287e-05
1.299391e-06
1.0376305e-11
3.3593889e-09
3.6887356e-05
0.00010313869
4.2828306e-05
6.0668378e-05
0.00011841266
2.6464221e-05
2.7888532e-07
3.3593889e-09
2.066052e-05
0.00010314074
3.1579772e-05
3.9612667e-05
0.00028318292
1.8667391e-05
3.3181642e-06
3.8848356e-09
1.0071638e-05
8.8496077e-05
2.6112584e-05
2.7168275e-05
0.00029315259
1.5881682e-05
8.905215e-06
4.1754067e-07
2.5157893e-06
1.4124952e-05
1.5199855e-05
1.9376839e-05
0.00020493847
1.8260753e-05
4.1197562e-11
2.7970754e-07
2.3450042e-05
7.0877159e-05
1.2007361e-05
1.3163892e-05
0.00013985711
2.019379e-05
4.0677763e-07
8.3532098e-09
4.2990081e-05
7.1398432e-05
1.1559319e-05
1.265888e-05
0.00011571542
1.5523459e-05
7.8744355e-11
2.2597676e-07
1.3740946e-05
5.2015041e-05
1.070459e-05
7.1901195e-05
9.1716468e-05
7.2227316e-06
2.2198468e-09
1.4481432e-07
6.7114016e-06
3.3842424e-05
1.0261432e-05
1.1337106e-05
8.611462e-05
3.1895095e-06
1.4870649e-11
1.6758659e-06
4.4021701e-05
3.460265e-06
0.0039097258
0.055535656
1.2645816e-06
1.7653347e-05
3.407784e-07
1.5121332e-07
3.1597575e-05
3.879973e-06
0.0022759991
0.059509724
1.2343076e-06
9.3128245e-06
3.1601049e-06
1.5916522e-08
3.6505109e-06
3.7922689e-06
0.0014827839
0.054939947
1.6019238e-06
7.81241e-06
5.0127276e-06
1.4729856e-06
1.2819786e-05
6.9892493e-06
0.0003757462
0.057035666
2.2340156e-06
2.9753051e-06
6.7861903e-13
2.4579601e-10
3.1802527e-05
2.030454e-05
1.2361658e-05
0.048739446
8.048379e-07
1.0984006e-06
9.8750268e-11
9.7249064e-09
5.418786e-06
5.6249806e-06
9.4887418e-06
0.049932165
1.333003e-07
3.7854731e-10
2.5289763e-10
1.9963388e-07
3.8925193e-07
2.7423276e-07
6.2844468e-06
0.037646691
8.1848851e-08
4.4687684e-08
5.3743002e-10
1.1240243e-07
7.160964e-07
5.3002261e-08
8.3386521e-07
0.037618724
3.3050842e-08
7.9587954e-10
1.0953081e-11
1.594852e-07
2.1796144e-07
3.3978776e-07
0.08559615
0.17080048
1.1843131e-07
3.0097254e-08
4.560816e-06
1.5183896e-07
2.5120152e-06
1.5879324e-06
0.093620487
0.1788829
7.6490898e-08
9.5119492e-09
7.2954775e-07
1.0833936e-06
5.5726078e-07
5.8794193e-07
0.085799007
0.17958252
7.5181021e-08
3.6657977e-09
8.5605846e-08
4.1357499e-07
2.5021814e-07
0.0026730241
0.090860837
0.18182087
0.00033831908
1.2928049e-09
5.6556675e-11
2.8352657e-10
4.5976444e-06
0.005593446
0.071687765
0.18144471
0.0018658604
1.4878705e-09
9.4425962e-09
3.2361378e-11
2.8352657e-10
0.0094736643
0.071308045
0.17718198
0.0015121482
1.2774151e-09
3.539651e-07
1.6680373e-08
4.6978579e-08
0.0066877242
0.052031794
0.17695475
8.482188e-09
3.4156006e-09
4.248661e-07
1.7180086e-08
1.5296755e-08
0.0078961875
0.052968053
0.16195273
0.0046735954
1.4688745e-08
1.0631937e-08
1.7084774e-05
3.3288329e-07
0.053916218
0.18192652
0.18192581
0.0235416
7.506451e-09
6.2080784e-06
2.0033235e-05
5.0924007e-07
0.06682455
0.18190214
0.18192601
0.03439436
4.2253664e-09
5.9895838e-09
2.0846635e-05
2.5021814e-07
0.067529712
0.18185909
0.18190211
0.034863718
2.0490015e-09
2.1473681e-09
1.198733e-06
8.2942054e-08
0.071698593
0.18182077
0.18185886
0.042913302
1.4878704e-09
1.1441193e-09
5.7449955e-10
6.8392701e-09
0.069955221
0.18175852
0.18181841
0.044493684
9.5158838e-10
1.9661536e-10
4.9857433e-10
5.7330723e-10
0.077133267
0.18165085
0.18174933
0.049585765
1.5170513e-09
9.5857229e-09
5.7319668e-10
0.00024142729
0.08242766
0.17977334
0.18163372
0.040307014
1.8474228e-09
1.6260796e-07
1.4167268e-09
0.00012820939
0.0867237
0.1564678
0.18055753
0.044310857
2.151674e-08
1.2923467e-07
0.00053356121
4.297941e-05
0.00078105363
0.07910858
0.14267684
1.0335223e-07
2.7886779e-08
1.247087e-05
0.00025774898
0.00023405077
0.00089120588
0.086336773
0.14942834
0.0019102437
7.506451e-09
1.3938872e-06
4.2290551e-07
4.9198575e-05
5.1615281e-05
0.081790823
0.14755683
0.00013721351
4.2253664e-09
3.9524739e-07
1.5014034e-07
0.0002931644
0.0033953607
0.084730588
0.15380604
0.0014257035
2.0495291e-09
1.1291456e-07
6.8392691e-09
0.00062422574
0.006107711
0.064211386
0.14668161
2.9698034e-08
1.5398039e-09
1.5216194e-06
5.7324355e-10
0.00063094293
0.013473726
0.065560805
0.15092159
3.5162822e-08
1.8480215e-09
1.880357e-06
1.4167268e-09
0.0005986669
0.01293927
0.048934024
0.13817603
6.2060492e-09
3.2170324e-09
5.3734e-09
2.5251704e-09
0.00075333197
0.0094362753
0.052101296
0.13772482
1.8541768e-06
7.3270471e-07
1.6702746e-08
0.00032581415
0.00073406948
0.00018332825
0.015460535
0.057190017
3.655134e-07
2.3656189e-06
7.8504369e-06
0.00014795946
0.00073434338
0.00018092541
0.014634421
0.056488058
0.00087612537
2.3354457e-08
3.8671326e-06
9.3919873e-05
0.00027367659
0.00013645755
0.011916966
0.050621718
0.0019415554
1.3129436e-08
1.6577226e-06
0.00010065205
0.00013906099
3.2163909e-05
0.010054778
0.048067843
0.00071122328
6.2995553e-09
5.990576e-07
8.111951e-05
0.00015715595
2.4018778e-05
0.0086694514
0.043239972
0.00052499497
1.3005189e-08
1.0298448e-06
3.5712713e-05
0.00018678431
2.5622482e-05
0.0070253364
0.034075322
0.00027603383
1.9314941e-08
3.5979051e-06
7.5453836e-05
0.00015175695
7.9517904e-05
0.0042033895
0.029443385
6.2335165e-08
5.3737349e-09
4.6199269e-06
0.000113132
0.00030203064
0.00059810964
0.002396065
0.023819247
4.5523885e-07
8.7166087e-07
4.7748565e-06
0.000954795
0.00067960688
0.00018359498
0.0010736034
0.017312013
5.6330626e-07
1.8610433e-06
6.4905384e-06
0.00095470925
0.00053856166
0.00018213321
0.00059065586
0.018746562
5.6285853e-07
2.8597508e-06
1.793162e-06
0.0009541585
0.00095323201
0.00011754391
0.00039201794
0.017606324
6.564398e-07
4.2461564e-06
5.1724977e-07
0.00095345618
0.0009518877
2.3601523e-05
5.6737432e-05
0.016995238
8.1452997e-07
1.9535888e-06
6.7382039e-07
0.00095378352
0.000359494
2.3601523e-05
6.0736114e-05
0.015986084
4.7296536e-07
4.0638999e-07
9.9008029e-10
0.00095345977
0.00012154607
2.4018778e-05
9.7046523e-05
0.014096536
5.7867044e-07
1.7157229e-06
1.1976544e-06
0.00095147758
0.00018591537
6.6820502e-05
0.00015919176
0.01415971
3.9523326e-07
4.5135524e-06
3.3934234e-06
0.00082456345
0.00037031335
0.00026208235
0.0005094957
0.010044539
6.1823647e-07
6.6071698e-06
1.8500262e-06
0.00026599679
0.00024081452
0.00030484329
5.970396e-05
1.3442828e-05
2.8011991e-05
3.7276393e-06
5.9504266e-06
0.00029127449
0.00023857769
0.00044827873
5.9918766e-05
0.00012237054
6.0784481e-05
7.740107e-06
4.2215331e-06
0.00025231857
0.00034578469
0.00044845885
9.7568626e-05
0.00026130368
0.00010088921
8.4614073e-06
1.8019725e-10
0.00026114937
0.0003914226
0.00038787798
3.2775341e-05
0.00024294555
0.00035061863
3.9256105e-10
1.766554e-10
0.00029334036
0.00025727319
0.00020881339
6.5581622e-05
0.00021208512
0.0002548274
8.6612882e-06
1.8019746e-10
0.00036120092
1.4723088e-05
4.9060491e-05
0.00010785735
0.00011597375
2.8377794e-06
2.52868e-05
1.4781609e-07
0.00035470109
0.00017555613
4.1078138e-05
3.02474e-05
4.621163e-05
2.6188102e-05
3.0052826e-05
2.0845446e-10
6.6240715e-05
0.00026968643
0.00013360264
2.1435489e-05
0.00029316121
9.1239601e-05
2.5953389e-05
2.8681454e-10
3.0730412e-05
1.8090787e-05
4.2922374e-05
5.2535744e-05
1.1543768e-05
5.6077351e-05
8.2553342e-06
6.2509108e-07
0.00037742741
0.00020454742
0.00025843586
0.00014017642
4.8871261e-06
9.2709036e-06
6.0773916e-06
7.8182145e-06
0.00035588188
0.00026871477
0.00024014385
6.7592549e-05
8.9669679e-07
3.1546408e-05
1.4332868e-05
5.7355986e-06
1.4463249e-05
1.4460789e-05
1.8589917e-05
8.7901341e-06
4.760697e-07
0.00013918116
1.2803196e-05
1.766554e-10
3.7671972e-05
1.9541736e-05
5.1456778e-05
1.3564591e-05
4.7133853e-07
0.00025548426
3.2680476e-05
1.766554e-10
1.4717094e-05
1.4535188e-05
1.3965096e-05
2.3499295e-05
4.9262894e-07
0.00014716274
3.8729673e-05
1.8944892e-10
1.4846873e-05
2.0547908e-05
2.6791485e-06
7.8360319e-07
1.8251573e-07
7.80945e-05
2.9993059e-05
2.0216159e-10
2.4007548e-05
2.57815e-05
1.6523958e-05
6.6149824e-07
1.764746e-07
8.8267042e-05
2.9208747e-05
2.0538124e-10
1.3997419e-06
1.4009418e-06
9.1363956e-05
5.6524879e-06
5.645495e-06
6.2525253e-05
1.0723403e-05
6.2508916e-07
1.4009418e-06
8.9523661e-05
5.3059795e-05
5.3000797e-05
4.4719704e-06
1.7867947e-05
6.0722297e-06
5.326304e-06
0.00013793452
0.00016040421
0.00021572342
1.5740214e-06
7.6140486e-07
1.7029252e-06
3.9198792e-06
8.4314708e-06
0.0002837117
2.8472067e-05
7.6962817e-05
1.4511837e-06
4.2269883e-07
5.5973867e-06
2.1814151e-07
1.766554e-10
1.9290221e-05
0.00011775363
1.8917704e-07
2.22937e-07
2.5292101e-07
5.6878053e-05
6.2713795e-06
1.7436128e-08
2.6093532e-05
6.3209918e-05
1.4630509e-07
1.3646994e-07
1.7383044e-07
8.6959629e-05
1.7113217e-05
9.9573961e-09
3.1304755e-05
8.7758543e-06
1.3646994e-07
1.3183698e-07
1.2710923e-07
6.8772801e-05
2.0882073e-05
6.6853375e-10
1.0750298e-05
1.460871e-06
1.2669947e-07
1.1733874e-07
1.1310893e-07
3.8205659e-05
1.8114839e-05
3.8961673e-10
1.3412295e-06
2.5369135e-05
0.0010491611
0.00064914832
1.9227624e-06
5.8791444e-05
2.2069679e-06
6.2534407e-07
3.1791271e-06
0.00012938795
0.00077217724
0.0003727123
1.9218596e-06
8.2584932e-06
2.2204821e-06
4.7623209e-06
0.00015360442
0.00016743803
0.00093578163
0.00010209927
1.3989809e-06
1.4666853e-06
7.9530737e-06
8.8498735e-06
0.00027887463
0.00012676308
0.00076131194
0.00012489434
1.4016818e-07
1.6651892e-06
2.7447781e-09
6.2861577e-07
1.8472343e-05
0.00016508676
0.00043264851
9.4737477e-05
8.2240493e-07
5.0997982e-07
6.9973834e-08
1.2547957e-09
1.7648552e-05
0.00010130063
0.00042344733
3.3955708e-05
1.2028855e-06
1.4037732e-06
1.6796978e-06
1.3930678e-08
1.4675528e-05
3.8099846e-05
0.00040498704
4.3917823e-07
4.9544723e-07
1.2156674e-05
3.1381535e-06
6.9387932e-10
1.0292846e-05
4.1586528e-05
0.00022550455
1.1314663e-07
1.1045424e-07
2.4937833e-06
1.3428687e-06
5.8300849e-10
1.3419495e-06
0.00030616942
0.0011916492
0.00076312347
0.00011271373
2.1266448e-05
1.8931882e-06
2.9731694e-06
1.1214456e-05
0.00031386772
0.0011916003
0.0008059727
1.4102846e-08
2.0821685e-06
2.191458e-06
3.6563599e-06
0.00014218756
0.0003318118
0.0011914521
0.0010444551
7.9288406e-09
1.8699422e-06
8.8349419e-06
8.8504294e-06
0.00012922496
0.00034812869
0.0011914583
0.00075791957
5.8001271e-09
3.5107944e-06
2.6908551e-09
2.8330111e-06
1.9803773e-05
0.00028768004
0.0011912846
0.0004589611
1.3246345e-07
3.2343416e-09
2.5764933e-09
1.1236061e-09
2.1444553e-05
0.00027269918
0.0011910632
0.00029625479
3.0042351e-07
2.4425974e-08
1.2741514e-07
4.4660224e-08
1.033651e-06
0.00012934065
0.0011904134
0.0001829319
6.981972e-08
1.5325994e-07
2.264463e-07
8.6814459e-09
6.39567e-07
0.00015482348
0.0011636566
0.00011661985
5.3604813e-09
1.777633e-07
8.7661314e-08
9.5114702e-10
0.0001160008
0.00069243526
0.0011916495
0.00075533145
9.5742399e-05
2.3587951e-05
1.1862237e-05
1.2135381e-05
5.7538504e-05
0.0011812964
0.001191649