/*--------------------------------*- C++ -*----------------------------------*\
  =========                 |
  \\      /  F ield         | OpenFOAM: The Open Source CFD Toolbox
   \\    /   O peration     | Website:  https://openfoam.org
    \\  /    A nd           | Version:  13
     \\/     M anipulation  |
\*---------------------------------------------------------------------------*/
FoamFile
{
    format      ascii;
    class       volScalarField;
    location    "0.11";
    object      p;
}
// * * * * * * * * * * * * * * * * * * * * * * * * * * * * * * * * * * * * * //

dimensions      [1 -1 -2 0 0 0 0];

internalField   nonuniform List<scalar> 
51200
(
0.88491407
0.8710113
0.86284217
0.85967354
0.85967291
0.86284034
0.87100851
0.88491063
0.87455918
0.86128896
0.85381612
0.85099541
0.8509948
0.85381438
0.86128628
0.87455578
0.86517857
0.85275373
0.84594617
0.84341652
0.84341595
0.84594452
0.85275117
0.8651752
0.85753133
0.84599958
0.83984441
0.83756355
0.83756302
0.83984285
0.84599715
0.85752801
0.85106089
0.84040467
0.83488875
0.83282729
0.83282679
0.83488728
0.84040235
0.85105765
0.84541756
0.835605
0.83070385
0.82883853
0.82883806
0.83070247
0.83560279
0.8454144
0.84048464
0.83144721
0.82713181
0.82544576
0.82544532
0.82713052
0.83144512
0.84048159
0.8362288
0.82775261
0.82402493
0.82250864
0.82250824
0.82402372
0.82775063
0.83622588
0.79568043
0.79517887
0.79487946
0.79443334
0.79443266
0.79487749
0.79517583
0.79567672
0.79676294
0.79637847
0.79605149
0.79560046
0.79559981
0.79604959
0.79637553
0.79675925
0.79798521
0.79776513
0.79741256
0.79695275
0.79695213
0.79741076
0.7977623
0.79798157
0.79923531
0.79915164
0.79877012
0.79830253
0.79830195
0.79876841
0.79914894
0.79923174
0.80049567
0.80048302
0.80007094
0.79960057
0.79960002
0.80006932
0.80048045
0.80049218
0.80171141
0.80170161
0.80126255
0.80079653
0.80079601
0.80126102
0.80169918
0.80170802
0.80282558
0.80276531
0.80230639
0.80185185
0.80185136
0.80230496
0.80276301
0.8028223
0.80372968
0.80360787
0.80313616
0.80269593
0.80269547
0.80313483
0.80360573
0.80372654
0.79879683
0.79742282
0.79661745
0.79623784
0.79623703
0.79661503
0.79741911
0.79879234
0.79907955
0.79772294
0.79698082
0.79661514
0.79661436
0.79697848
0.79771933
0.79907508
0.79934013
0.79802224
0.79734766
0.79699412
0.79699338
0.79734541
0.79801875
0.7993357
0.79943683
0.79817542
0.7975745
0.79723814
0.79723743
0.79757234
0.79817206
0.79943245
0.79941223
0.79822977
0.79770381
0.79738895
0.79738828
0.79770176
0.79822654
0.79940792
0.79932974
0.79823905
0.79778549
0.79749586
0.79749522
0.79778354
0.79823598
0.79932551
0.79919222
0.79820325
0.7978251
0.79756665
0.79756605
0.79782326
0.79820035
0.7991881
0.79884273
0.79804785
0.79776672
0.79754977
0.79754922
0.797765
0.79804512
0.79883878
0.78825138
0.78802019
0.78806119
0.7881539
0.78815287
0.7880581
0.7880155
0.78824578
0.78844977
0.78826838
0.78831764
0.78838946
0.78838848
0.78831464
0.78826381
0.78844418
0.78865008
0.78851384
0.7885759
0.78862976
0.78862881
0.78857301
0.7885094
0.78864451
0.78883314
0.78873385
0.78881214
0.7888536
0.78885269
0.78880935
0.78872956
0.78882761
0.78900463
0.78894018
0.789037
0.78907048
0.78906961
0.78903433
0.78893604
0.78899916
0.78917605
0.78914392
0.78925958
0.78928851
0.78928769
0.78925704
0.78913996
0.78917066
0.78934464
0.78935034
0.78948463
0.78951311
0.78951233
0.78948221
0.78934656
0.78933936
0.7894452
0.78957206
0.78972348
0.78975831
0.78975758
0.78972121
0.78956847
0.7894401
0.78270826
0.78253588
0.78264838
0.7828489
0.78284752
0.78264419
0.78252964
0.78270092
0.78281046
0.78267656
0.78280009
0.7829783
0.78297697
0.78279604
0.78267047
0.78280313
0.78291931
0.78282134
0.78295799
0.78311661
0.78311533
0.78295406
0.78281542
0.782912
0.78301087
0.7829435
0.78309682
0.78324197
0.78324075
0.78309304
0.78293776
0.78300359
0.78308823
0.78304924
0.7832227
0.78335939
0.78335822
0.78321907
0.78304369
0.78308101
0.78315832
0.78314535
0.78334184
0.78347401
0.78347289
0.78333836
0.78314
0.78315118
0.78321673
0.78323805
0.78346057
0.78359241
0.78359134
0.78345725
0.78323293
0.78320971
0.78323296
0.78336342
0.78361143
0.78374834
0.78374734
0.78360829
0.78335853
0.78322614
0.77743173
0.77735553
0.77752696
0.77776375
0.77776184
0.7775212
0.77734712
0.77742205
0.77749635
0.7774549
0.7776336
0.77784825
0.77784641
0.77762802
0.77744669
0.77748666
0.77756591
0.77755663
0.77774379
0.77793892
0.77793715
0.77773839
0.77754864
0.77755623
0.77762929
0.77764601
0.77784336
0.77802411
0.77802241
0.77783814
0.77763824
0.77761964
0.77768811
0.77772648
0.77793607
0.77810667
0.77810503
0.77793104
0.77771895
0.77767851
0.7777457
0.77780131
0.77802519
0.77818904
0.77818748
0.77802037
0.77779404
0.77773619
0.77779902
0.77787462
0.77811482
0.77827548
0.778274
0.77811022
0.77786762
0.77778965
0.77782978
0.7779733
0.77822907
0.77839111
0.7783897
0.7782247
0.77796658
0.77782065
0.77274856
0.7726935
0.77283953
0.77304854
0.77304585
0.77283147
0.77268201
0.77273561
0.77278878
0.77276062
0.77291361
0.77310486
0.77310226
0.7729058
0.77274937
0.7727758
0.77283269
0.77282969
0.77299012
0.77316557
0.77316306
0.77298256
0.77281871
0.7728197
0.77287283
0.77289058
0.77305939
0.77322298
0.77322057
0.77305207
0.77287988
0.77285987
0.77291033
0.7729457
0.77312422
0.77327923
0.77327692
0.77311717
0.77293531
0.77289742
0.77294772
0.77299763
0.77318725
0.77333631
0.77333409
0.77318048
0.77298757
0.77293491
0.7729837
0.77304977
0.77325159
0.77339737
0.77339526
0.7732451
0.77304005
0.77297105
0.77300657
0.77312
0.77333293
0.7734787
0.77347669
0.77332675
0.77311065
0.77299421
0.76835928
0.76831861
0.76842685
0.76859073
0.76858689
0.7684155
0.76830277
0.76834188
0.76838536
0.768365
0.76847978
0.76863069
0.76862698
0.76846875
0.76834945
0.76836791
0.76841419
0.76841296
0.76853436
0.76867369
0.76867011
0.76852367
0.76839773
0.76839672
0.76844099
0.76845547
0.76858371
0.76871421
0.76871076
0.76857337
0.7684406
0.76842351
0.76846637
0.76849402
0.76862969
0.76875368
0.76875037
0.76861971
0.76847953
0.76844893
0.76849197
0.76853031
0.76867414
0.76879354
0.76879037
0.76866453
0.76851624
0.76847462
0.76851697
0.76856667
0.76871912
0.76883591
0.76883288
0.76870992
0.76855307
0.7684998
0.76853278
0.76861441
0.76877434
0.76889077
0.76888789
0.76876556
0.7686013
0.76851597
0.76416948
0.7641358
0.76420405
0.76432045
0.76431488
0.76418781
0.76411363
0.76414589
0.76418693
0.76416814
0.7642426
0.76435042
0.76434504
0.76422678
0.76414628
0.76416322
0.76420639
0.76420169
0.76428226
0.76438242
0.76437722
0.7642669
0.7641802
0.76418259
0.76422458
0.76423139
0.76431786
0.76441217
0.76440715
0.76430298
0.76421031
0.76420073
0.76424184
0.76425813
0.76435068
0.7644407
0.76443588
0.7643363
0.76423755
0.76421801
0.76425929
0.76428307
0.76438201
0.76446908
0.76446447
0.76436817
0.76426304
0.76423554
0.76427642
0.76430785
0.76441325
0.76449875
0.76449435
0.76439998
0.76428847
0.76425288
0.76428697
0.76433992
0.76445058
0.76453601
0.76453182
0.76443793
0.76432123
0.76426388
0.76011811
0.76008976
0.76012488
0.76019979
0.76019166
0.76010136
0.76005843
0.76008601
0.76013034
0.76011279
0.7601536
0.76022341
0.76021554
0.76013064
0.76008173
0.760098
0.76014404
0.7601367
0.76018306
0.76024836
0.76024074
0.7601607
0.760106
0.76011147
0.76015682
0.76015769
0.76020921
0.76027113
0.76026377
0.7601875
0.76012747
0.76012409
0.76016889
0.7601763
0.76023292
0.76029245
0.76028538
0.76021192
0.76014668
0.76013609
0.76018102
0.76019328
0.76025512
0.76031317
0.76030639
0.7602349
0.76016442
0.76014824
0.76019285
0.76020989
0.76027683
0.76033431
0.76032784
0.76025745
0.76018193
0.76016028
0.76019985
0.76023142
0.76030231
0.76036013
0.76035398
0.76028385
0.76020445
0.76016784
0.75617392
0.75615079
0.75616056
0.75620124
0.75618902
0.75612506
0.75610475
0.75612897
0.75618309
0.75616771
0.7561824
0.75622052
0.75620866
0.75614762
0.75612168
0.75613754
0.75619333
0.75618524
0.75620473
0.75624067
0.75622918
0.75617073
0.75613949
0.7561472
0.75620277
0.75620032
0.75622424
0.75625868
0.75624758
0.75619117
0.75615514
0.7561562
0.75621153
0.7562133
0.75624155
0.75627512
0.75626445
0.75620956
0.75616894
0.75616469
0.75622015
0.75622469
0.75625734
0.75629066
0.75628044
0.75622658
0.75618145
0.7561732
0.75622834
0.75623546
0.7562724
0.75630606
0.75629632
0.75624303
0.75619364
0.75618162
0.75623275
0.75624968
0.75628996
0.75632447
0.75631523
0.7562621
0.75620951
0.75618684
0.75231807
0.75230025
0.75229144
0.75230402
0.7522857
0.75223795
0.75224807
0.75225336
0.7523258
0.7523134
0.75230841
0.75232009
0.75230224
0.75225532
0.75224514
0.75226072
0.75233427
0.75232681
0.75232565
0.75233673
0.75231939
0.75227355
0.75225888
0.75226769
0.75234179
0.75233793
0.75234039
0.75235131
0.75233456
0.75228965
0.75227058
0.75227413
0.75234849
0.75234698
0.75235308
0.75236429
0.75234818
0.752304
0.75228073
0.75228018
0.75235479
0.75235434
0.75236424
0.75237619
0.75236078
0.75231712
0.75228974
0.7522862
0.75236044
0.75236081
0.75237453
0.75238763
0.75237298
0.75232966
0.75229841
0.75229212
0.7523628
0.75236974
0.7523866
0.75240112
0.75238724
0.75234419
0.75230992
0.75229576
0.74855673
0.74853804
0.74850996
0.74849438
0.74846536
0.74841837
0.74859926
0.74844292
0.74856533
0.74854877
0.74852332
0.74850792
0.74847947
0.7484279
0.74844123
0.74845811
0.74857381
0.74855942
0.7485368
0.74852185
0.74849423
0.74844504
0.74845169
0.74846215
0.74858021
0.7485674
0.74854784
0.7485338
0.74850721
0.74846063
0.74846048
0.74846588
0.74858496
0.74857293
0.74855677
0.74854412
0.74851866
0.74847408
0.74846781
0.74846977
0.74858861
0.74857635
0.74856402
0.74855323
0.74852901
0.74848595
0.74847412
0.74847373
0.74859082
0.7485783
0.74857014
0.74856163
0.74853874
0.74849696
0.74848015
0.74847756
0.74858908
0.7485817
0.7485774
0.74857145
0.74854994
0.74850936
0.74848851
0.74847966
0.7450827
0.74485589
0.74480054
0.74475521
0.7447173
0.7449918
0.74494705
0.74488008
0.74492742
0.74485787
0.74481099
0.74476652
0.74472319
0.74466552
0.74470251
0.7447128
0.74492635
0.74486525
0.74482143
0.74477812
0.7447357
0.74468503
0.74470946
0.74471338
0.74492338
0.7448701
0.74482946
0.744788
0.74474738
0.74470028
0.74471505
0.74471515
0.74491986
0.74487241
0.74483528
0.74479633
0.74475769
0.74471335
0.74471984
0.74471788
0.74491593
0.74487231
0.74483923
0.74480341
0.74476688
0.74472476
0.74472393
0.74472072
0.74491121
0.74487025
0.74484179
0.74480966
0.7447754
0.744735
0.74472782
0.74472333
0.74490416
0.7448691
0.74484517
0.74481709
0.74478505
0.7447464
0.74473376
0.7447246
0.74188683
0.74142677
0.74119047
0.74108909
0.74103611
0.74426392
0.7411439
0.74138848
0.74173801
0.74132596
0.74119479
0.74109698
0.74101706
0.74104088
0.74101936
0.74103373
0.74164145
0.74131205
0.74120111
0.74110631
0.74103051
0.74105639
0.74101523
0.74103231
0.7415827
0.74130249
0.74120458
0.74111463
0.74104339
0.74106487
0.74102034
0.7410308
0.7415311
0.74129325
0.74120537
0.74112125
0.74105417
0.74106831
0.74102715
0.74103086
0.74148383
0.74128292
0.74120388
0.74112624
0.74106359
0.74106975
0.74103238
0.74103145
0.74144168
0.74127083
0.74120036
0.74112999
0.74107221
0.74107081
0.74103637
0.74103194
0.74140521
0.74125747
0.74119649
0.74113425
0.74108167
0.74107317
0.74104158
0.74103131
0.73927829
0.73792797
0.73759907
0.73748902
0.73730804
0.74123151
0.73737306
0.73772855
0.73854064
0.73779947
0.73760001
0.73744942
0.73726751
0.73740582
0.73738429
0.73737902
0.73836008
0.73776417
0.73760235
0.73745736
0.73731406
0.73740573
0.73737733
0.73738054
0.73823494
0.73774075
0.73760182
0.73746581
0.73734461
0.73740814
0.73737768
0.73737872
0.73812809
0.73772119
0.73759869
0.73747272
0.73736684
0.73740901
0.73738112
0.73737771
0.73803362
0.73770224
0.73759329
0.73747783
0.73738556
0.73740902
0.73738366
0.73737709
0.73795292
0.73768257
0.73758572
0.73748151
0.73740146
0.73740935
0.73738528
0.73737644
0.73789066
0.73766164
0.73757769
0.73748575
0.73741607
0.73741144
0.7373882
0.73737528
0.74236296
0.73407387
0.73403052
0.73409501
0.741864
0.73656914
0.7336755
0.73381304
0.7353395
0.734193
0.73405179
0.73385161
0.733676
0.73378113
0.73377941
0.73378367
0.73469753
0.7340868
0.73404825
0.73385561
0.7337432
0.73376015
0.73376379
0.73378295
0.73455677
0.73407736
0.73403887
0.73386186
0.73377841
0.73376205
0.73376096
0.73377674
0.73445781
0.73407255
0.73402819
0.73386763
0.73380232
0.73376786
0.73376172
0.7337715
0.73437399
0.73406257
0.73401672
0.73387186
0.73382111
0.73377333
0.73376243
0.73376702
0.73430093
0.73404912
0.73400366
0.73387474
0.73383559
0.73377862
0.73376299
0.73376319
0.73424762
0.7340341
0.73399007
0.73387901
0.73384786
0.73378553
0.73376536
0.73376063
0.74121618
0.73039069
0.73028532
0.73059886
0.75495492
0.73167337
0.73008559
0.73023527
0.73153903
0.73023614
0.73030721
0.73025411
0.7307251
0.73016103
0.73019566
0.73023582
0.73147433
0.73025864
0.73032765
0.73026789
0.73070203
0.73013235
0.73017926
0.73023745
0.73129044
0.73026335
0.73034945
0.73028257
0.73068633
0.73014931
0.73017788
0.73023713
0.73110323
0.73025753
0.73036639
0.73029242
0.73065111
0.73017516
0.73018093
0.73023134
0.73095019
0.73025682
0.7303772
0.73029911
0.73060911
0.73019772
0.73018493
0.73022313
0.73081936
0.7302593
0.73038223
0.73030432
0.7305671
0.73021668
0.73018845
0.73021414
0.73071451
0.7302648
0.73038369
0.73031199
0.7305263
0.73023506
0.73019281
0.73020684
0.72834874
0.72668487
0.72679769
0.72694199
0.74966821
0.72925762
0.72728327
0.72888555
0.73025167
0.72656276
0.72682398
0.72672376
0.72701888
0.72656897
0.72648606
0.7266853
0.7286513
0.72648353
0.72684443
0.72672662
0.72705122
0.72655581
0.72651037
0.72671967
0.72813983
0.72652567
0.72686103
0.72673994
0.7270584
0.72657125
0.72651216
0.72672007
0.72770823
0.72655829
0.72687335
0.72674873
0.72704675
0.72659893
0.72651821
0.72671807
0.72746945
0.72657809
0.72688029
0.72675508
0.727028
0.72662693
0.72652762
0.72671269
0.72728856
0.72659476
0.72688109
0.72676094
0.7270073
0.72665344
0.72653799
0.72670156
0.7271454
0.72661062
0.72687776
0.72677097
0.72698513
0.72668299
0.7265533
0.72668334
0.7317358
0.72388532
0.7232828
0.72330106
0.74426614
0.72697609
0.72757154
0.74535263
0.74242501
0.72297147
0.72320246
0.72326861
0.72369535
0.72282243
0.72261973
0.72495414
0.72478666
0.72238239
0.72318614
0.7232683
0.72375079
0.72288094
0.72276449
0.72454025
0.72354175
0.72254869
0.72323254
0.72328707
0.72376393
0.72296082
0.72280027
0.72428237
0.72323044
0.72266736
0.72327787
0.72330179
0.72375048
0.72304184
0.72280171
0.72409998
0.72314153
0.72274879
0.7233118
0.72331342
0.7237264
0.72311249
0.72280906
0.72393789
0.72310499
0.72282234
0.72333764
0.72332425
0.72369713
0.7231724
0.7228233
0.72378255
0.72309228
0.72290404
0.72336152
0.72334028
0.72366527
0.72323007
0.7228506
0.72362756
0.72440573
0.72025939
0.72018456
0.72002683
0.73101241
0.72279005
0.72233864
0.72495357
0.72877877
0.71972507
0.72017382
0.72007247
0.72233947
0.71916604
0.71931808
0.71746034
0.72099026
0.71948026
0.72019239
0.72008548
0.72160275
0.71928493
0.71872311
0.72181136
0.72006602
0.71958634
0.72022699
0.72010884
0.72149079
0.71946201
0.71891617
0.72159006
0.71987964
0.7196754
0.72025583
0.72013029
0.72135434
0.71962827
0.71902471
0.72115319
0.71984653
0.71973715
0.72027053
0.72014934
0.72121353
0.71976589
0.71909907
0.72082329
0.71983816
0.71978784
0.72027523
0.7201664
0.72107628
0.71987569
0.7191703
0.72053987
0.71983539
0.71984178
0.72027396
0.72018658
0.72094258
0.71997592
0.71924568
0.72027436
0.7173348
0.71673858
0.7173097
0.71714994
0.71645513
0.71783171
0.72143183
0.71928084
0.71699361
0.71671122
0.71732798
0.7171583
0.72122477
0.71613194
0.71812395
0.72076308
0.71689441
0.71672189
0.71734862
0.71718113
0.71860606
0.71666342
0.71647089
0.71720652
0.71669261
0.71675246
0.7173672
0.71720429
0.71852231
0.71684044
0.71620481
0.71724221
0.71670102
0.71678793
0.71737875
0.71722896
0.7184709
0.71693018
0.71632696
0.71676354
0.7167064
0.71681738
0.71738141
0.71725153
0.71839275
0.71698401
0.7163077
0.71650959
0.71670309
0.716843
0.71737527
0.71727102
0.71829134
0.71702014
0.71630641
0.71630182
0.71668945
0.71687001
0.71736097
0.71729155
0.71816897
0.7170563
0.71629221
0.71613244
0.71315835
0.712888
0.71449948
0.71427697
0.72761858
0.71293354
0.7180632
0.72178454
0.71349462
0.71297881
0.71445477
0.71425992
0.74954986
0.71398857
0.71463371
0.72275231
0.71237633
0.71294073
0.71448288
0.71445223
0.71602036
0.7134188
0.71237951
0.72641019
0.71234313
0.71304124
0.71452825
0.7144805
0.71621263
0.71357328
0.71128104
0.71111311
0.71255895
0.71314574
0.71456242
0.71451753
0.71631444
0.71373513
0.71202114
0.71058331
0.71265014
0.71324516
0.71458221
0.71455633
0.71632527
0.71385672
0.71210368
0.71062678
0.7127271
0.71334439
0.71458926
0.71459212
0.71628748
0.71395686
0.71223746
0.71067547
0.71280035
0.71344652
0.71459104
0.71463134
0.71620417
0.71405967
0.7123984
0.71076707
0.70984739
0.7091576
0.71248208
0.71131478
0.71443656
0.71055023
0.71185946
0.7371165
0.7095866
0.70924164
0.71247502
0.71138761
0.73298066
0.71193647
0.71113102
0.72583019
0.70919567
0.70936159
0.71258564
0.71169246
0.72231387
0.71054431
0.70840217
0.7468305
0.70884714
0.7095215
0.7126818
0.71192776
0.72077909
0.71033339
0.70702435
0.70212982
0.70891637
0.70970715
0.71275445
0.71214544
0.72040191
0.71070249
0.70760126
0.70270192
0.70893415
0.70989963
0.71280009
0.71235068
0.71994215
0.71108653
0.70804108
0.70321079
0.7089687
0.71009726
0.7128172
0.7125229
0.71940725
0.71145789
0.70843664
0.70376514
0.70904481
0.71029901
0.71280751
0.71267228
0.71879594
0.71182782
0.70885558
0.70443414
0.70410082
0.7040903
0.71195374
0.70902731
0.73283678
0.70583228
0.7074662
0.71417661
0.7037079
0.70441185
0.71209654
0.70974152
0.73129421
0.70666547
0.70604416
0.71018994
0.70431927
0.70477244
0.71221248
0.71029314
0.73118816
0.70755981
0.70381836
0.73143884
0.70397746
0.70517846
0.71232349
0.71085097
0.73106978
0.70746211
0.70221179
0.6993388
0.70401082
0.70562921
0.71237951
0.71139013
0.7299511
0.70841216
0.70299199
0.69937424
0.70409413
0.70609493
0.71238434
0.71177886
0.72839099
0.70923728
0.70364586
0.69955564
0.70425362
0.70656253
0.71233745
0.71204456
0.72705995
0.71000077
0.70424747
0.69986153
0.70449822
0.70703574
0.71223046
0.71229249
0.72590153
0.71079407
0.70488238
0.7003157
0.69735319
0.6969439
0.71067682
0.73297376
0.74618538
0.69971718
0.69840169
0.69743325
0.69724878
0.69762788
0.71086754
0.71376105
0.74202789
0.70073856
0.69750705
0.69579151
0.69712805
0.69842531
0.71098653
0.70459563
0.74286904
0.70283952
0.69621397
0.71099592
0.69715242
0.69930346
0.71105301
0.70726179
0.74398385
0.70375123
0.6953219
0.69005152
0.69730994
0.70024943
0.71154059
0.71678017
0.7435095
0.70559057
0.69633548
0.69025704
0.6975679
0.70121382
0.71190472
0.71663661
0.74239121
0.70717177
0.69735184
0.69066401
0.69793647
0.70216553
0.71208287
0.71677834
0.74426545
0.70897311
0.69842743
0.69126824
0.698455
0.70310552
0.71218781
0.71674912
0.74330906
0.71078159
0.69960723
0.69212394
0.69124755
0.68462246
0.71727949
0.77861227
0.86204151
0.68129796
0.68112191
0.68002903
0.68954688
0.68529137
0.71986523
0.77775664
0.85416243
0.68682302
0.68136046
0.67808359
0.68829557
0.68666624
0.72168694
0.7775282
0.85393084
0.69237332
0.68170357
0.68848053
0.68823883
0.68822271
0.72551139
0.7781577
0.90778427
0.70290297
0.68246156
0.67450733
0.68839626
0.69014477
0.72367606
0.78097311
0.85576827
0.70640194
0.68361008
0.67487316
0.68870759
0.6923413
0.72503849
0.78391898
0.95851474
0.70749045
0.68475021
0.67540601
0.68921438
0.69463283
0.72447188
0.76252176
0.8739648
0.7139273
0.68682235
0.67630063
0.68999051
0.69671371
0.71933894
0.74086184
0.83477217
0.71621326
0.68973951
0.67780343
0.67171008
0.66974436
0.72165726
0.67994439
0.87286908
0.65956986
0.63925133
0.65866566
0.67172713
0.67181865
0.71935878
0.68143955
0.86511049
0.65765915
0.6363097
0.65542058
0.67131752
0.67430176
0.71205437
0.68577008
0.8638966
0.66485203
0.63677317
0.66075893
0.67197886
0.67909379
0.75803253
0.69255162
0.87033595
0.68283731
0.64092764
0.65002146
0.6725865
0.68264577
0.72829388
0.70107642
0.8673721
0.70121837
0.64114873
0.64947077
0.67319024
0.68316287
0.73598822
0.70269103
0.83753208
0.69888994
0.66385036
0.64995537
0.67411031
0.68695434
0.73324258
0.70935793
0.82884776
0.73159855
0.6463176
0.65136663
0.67564305
0.68923474
0.7287354
0.71709489
0.79887173
0.69313475
0.65484243
0.65249498
0.64787869
0.6581162
0.70208375
0.7002152
0.6485221
0.70039818
0.53326612
0.62301877
0.64754461
0.64568176
0.70271926
0.69358206
0.5850095
0.60383773
0.51953011
0.6162689
0.64782008
0.64988791
0.69879503
0.69085702
0.57457125
0.63872227
0.51108292
0.61410535
0.64911501
0.67059137
0.79880881
0.69448973
0.57558289
0.51156658
0.50679962
0.60206317
0.64971303
0.66269156
0.72169762
0.70585488
0.57406653
0.5174652
0.49784317
0.59750537
0.65096771
0.69058423
0.725008
0.71353494
0.57520242
0.5309496
0.49213812
0.59284444
0.65338606
0.6604895
0.6996498
0.71490814
0.58040045
0.54430571
0.49502387
0.58845333
0.65441946
0.66485728
0.70096647
0.70623396
0.58688723
0.5567728
0.50651325
0.58525072
0.6125173
0.56237063
0.76154867
1.0521479
9.7114789
0.21046876
0.34410408
0.57295616
0.60741281
0.55648718
0.75850912
0.73112849
9.9938379
0.06524955
0.31831231
0.55443675
0.60578252
0.60074792
0.77640059
0.73933326
8.9098101
0.14220019
0.29834444
0.54082543
0.60428593
0.60048998
0.78966485
0.74273803
9.2037457
0.20329289
0.28464692
0.52398045
0.60321561
0.64156853
0.78243593
0.77856775
7.7611026
0.24062473
0.2750065
0.51158877
0.60515255
0.61993028
0.77413082
0.80587245
8.5446985
0.32090357
0.27171822
0.50133691
0.6069106
0.64023765
0.76467391
0.80197792
6.2712835
0.42346208
0.28616481
0.4926972
0.61050343
0.65734482
0.77465324
0.78430703
8.3024873
0.57934678
0.32804298
0.48771941
0.55294132
0.50816651
0.28592976
16.992348
52.388575
-1.9451645
0.44670748
0.46141036
0.54956313
0.49408093
0.32581699
17.995212
55.427208
-1.4933029
0.33468668
0.45117992
0.54539439
0.48620569
0.89599022
14.990559
55.616971
-0.42270177
0.26387562
0.4362947
0.54372445
0.50747878
1.2795627
16.708536
56.21156
0.36834959
0.2216917
0.41626968
0.54142646
0.5207011
1.6826963
11.056898
56.377323
0.88635668
0.19343447
0.38956113
0.53725954
0.55853794
2.4503877
11.142403
51.041089
1.537932
0.17820309
0.35806623
0.54443543
0.59508143
1.2780155
9.6073026
54.411017
2.8948904
0.18918415
0.34349379
0.552137
0.62723217
1.5358179
12.222602
44.183239
3.7602035
0.4173697
0.38408864
0.69227421
-0.58231474
9.8109128
57.976731
57.058337
3.6112203
0.21974022
0.59022699
0.60865348
-0.99672218
11.913574
57.375305
56.764282
5.2184473
-0.0016996835
0.54884312
0.5259949
-0.65183648
10.892383
57.268055
56.659589
5.9078439
0.13555539
0.48849676
0.42838158
-0.40631451
10.823327
56.298672
56.482628
7.2551607
0.21187595
0.44120455
0.35513592
-0.20051962
14.576634
56.993696
56.15761
7.7411964
0.30533643
0.36267123
0.30113399
0.021555041
20.875795
57.963763
56.35641
8.1992018
0.45171505
0.27841034
0.28018921
0.39015109
28.478102
55.15028
59.769855
6.4453682
0.56961546
0.25168231
0.33611162
1.4525281
29.019021
39.917252
57.254307
7.3404854
0.76554826
0.28470679
0.78290214
0.27230421
0.61854236
15.919625
40.072996
-0.80618891
0.36288553
0.57544016
0.55892004
0.25062714
0.65557892
17.05662
40.917418
-0.17444371
0.31336433
0.5531235
0.56141146
0.27896413
1.3427279
15.048325
39.860966
0.2260523
0.27669905
0.52365543
0.55242093
0.34402419
1.6000311
16.071111
42.246046
0.90610309
0.24899242
0.47584809
0.55178832
0.43503356
1.9285228
11.629011
37.761055
1.325488
0.22796465
0.40877223
0.53205267
0.30270931
3.9809348
11.909782
39.516377
1.8297958
0.2253975
0.33459277
0.50748849
0.37737563
3.0380856
10.047763
34.63909
2.0464256
0.26599617
0.27931591
0.50837324
0.48160207
1.7029058
11.764713
36.020396
2.0590372
0.32934347
0.26516388
0.64674528
0.45219365
0.52225636
2.6216321
15.163595
0.30407111
0.51816106
0.60163463
0.53080237
0.44335185
0.52964865
2.3140773
13.563207
0.61351791
0.51376166
0.59618853
0.56420103
0.49247111
0.59204457
1.8257274
10.737119
0.85899384
0.53311944
0.59410031
0.5607789
0.55681618
0.6451114
1.6121096
8.8983026
0.55411026
0.53659347
0.59071891
0.5574992
0.54953686
0.68828921
1.2964356
6.8131763
0.66281174
0.52995344
0.57863608
0.57469792
0.54670613
0.7220804
0.74880604
4.871618
0.69415552
0.52193613
0.5584701
0.56350065
0.58374721
0.73386749
0.30286109
4.0032765
0.6444475
0.50067823
0.53460775
0.56813583
0.56847498
0.5892527
0.34597199
3.1293378
0.5809707
0.46921762
0.50863289
0.79665146
0.5434672
0.89528617
0.69295342
4.0747369
0.38650606
0.43138548
0.57289156
0.79824018
0.59973333
0.8945745
0.58716899
4.4118978
0.34491632
0.42161311
0.56577689
0.82740092
0.89455349
0.91958839
0.59893015
4.0095035
0.38171758
0.41294655
0.56128679
0.82150828
0.96293845
0.97733692
0.63370984
3.7919601
0.42039895
0.39688634
0.55493338
0.82740587
0.62022995
0.94390733
0.65885551
3.7175712
0.4671183
0.38511937
0.54894729
0.87334737
0.82743896
0.92518239
0.68392262
3.4281977
0.47192207
0.38070517
0.54010024
0.89595418
0.66339661
0.87827243
0.70497164
3.6669469
0.48526412
0.37786925
0.53346494
0.78834418
0.63004889
0.78164226
0.71270364
2.1784057
0.50139996
0.38187073
0.51807526
0.59232996
0.48242454
0.7954337
0.62472487
0.59629529
0.44745624
0.53799642
0.56003653
0.59183794
0.49402231
0.74964969
0.62293102
0.56083484
0.42603138
0.53209973
0.55868235
0.58546231
0.53395276
0.76611021
0.63519979
0.5652655
0.42714872
0.5207765
0.55936983
0.58107622
0.57872596
0.69862883
0.67854899
0.56514217
0.74583857
0.52286456
0.55998152
0.54580832
0.48902959
0.68130254
0.6479201
0.56117612
0.58706733
0.5372198
0.56252341
0.58215176
0.82380273
0.68172508
0.70274103
0.55941723
0.55645755
0.5296905
0.5628656
0.63596095
0.5695954
0.69039804
0.65678266
0.56753944
0.52377202
0.52964564
0.56040892
0.51933743
0.64170682
0.56200451
0.67547312
0.55413752
0.46625781
0.51066093
0.5560948
0.89884272
0.88377338
0.78501148
0.66698873
0.63923945
0.54217295
0.53802529
0.54933519
0.90766038
0.7495227
0.78160757
0.68883212
0.63304603
0.57032192
0.54105505
0.55186232
0.88498292
0.83102951
0.75174664
0.60671708
0.63358776
0.54389993
0.53960595
0.54812833
0.72326411
0.55856303
0.65387821
0.60977282
0.63094168
0.56070491
0.53166075
0.5474517
0.64060741
0.56091333
0.64424772
0.60644098
0.62308854
0.75895807
0.54284881
0.54756958
0.58807649
0.57291181
0.64469423
0.60587029
0.61433153
0.59310301
0.54781262
0.54946797
0.57795398
0.57199548
0.65563064
0.5970804
0.60572259
0.5806902
0.54191753
0.55122219
0.56362216
0.57609008
0.62640538
0.59783997
0.59606927
0.57148174
0.54099396
0.55136906
0.71917872
0.64921999
0.61516106
0.57035067
0.59186387
0.56714032
0.55841445
0.5632978
0.6984564
0.57407114
0.64400479
0.58702637
0.59248585
0.53602172
0.55307597
0.55872552
0.69510436
0.64835452
0.71219579
0.55974181
0.59374758
0.55627131
0.55224702
0.56211775
0.9058625
0.63244546
0.59350499
0.55954242
0.59506784
0.55217635
0.55468915
0.55223623
0.65799865
0.6067187
0.61219682
0.55985596
0.59503194
0.55385298
0.55181105
0.55233631
0.61914077
0.57272056
0.60887981
0.56035438
0.59320887
0.59913451
0.55782503
0.55269318
0.57700288
0.59171776
0.60443561
0.56112857
0.5907146
0.57380834
0.55922582
0.55373029
0.57189623
0.61007534
0.60249392
0.56078641
0.58663213
0.56707068
0.55642342
0.55461211
0.76678257
0.62657966
0.8590426
0.70697185
0.57562107
0.57905608
0.56994883
0.5667848
0.76118015
0.6113727
0.71373742
0.52287328
0.57984197
0.55003026
0.57060688
0.56294588
0.76695283
0.60295441
0.76124643
0.59900319
0.58256695
0.55222767
0.57235395
0.56903355
0.95073549
0.56857925
0.67377584
0.58780998
0.58420054
0.55249674
0.56063277
0.55885591
0.62737886
0.56592989
0.67390634
0.58104308
0.58465597
0.5550285
0.55980446
0.55901294
0.60237425
0.54928313
0.66540929
0.56444289
0.5845865
0.55488109
0.55783755
0.55913715
0.56654553
0.56391924
0.65887942
0.5710294
0.5834997
0.56478861
0.55876421
0.55942894
0.56531075
0.57456152
0.60933924
0.5686475
0.58146855
0.55920662
0.55783329
0.5596846
0.56379341
0.54378046
0.84549233
0.63557567
0.58287912
0.56022898
0.56617796
0.55960938
0.57676956
0.54985161
0.83011049
0.61871952
0.55528709
0.54806583
0.56501357
0.55849339
0.66285408
0.56395293
0.84427539
0.91804817
0.55778864
0.54640999
0.57270187
0.56589756
0.62772922
0.5661518
0.83891098
0.6052653
0.56413959
0.54606039
0.55775173
0.55839799
0.60781339
0.5486176
0.83389428
0.56789997
0.56693618
0.54606586
0.55665065
0.55870686
0.61331151
0.54571313
0.83955428
0.57778272
0.56835772
0.54811707
0.55540732
0.5588912
0.60571882
0.5693865
0.86282832
0.5891913
0.56892241
0.55021446
0.55462508
0.55912999
0.59603017
0.59040783
0.8482359
0.58737151
0.56833146
0.55260487
0.55427857
0.55925257
0.56244392
0.8023496
0.81810367
0.72552601
0.56068679
0.56003636
0.56244028
0.5569089
0.50673891
0.89012143
0.81486986
0.70796663
0.53969601
0.54642277
0.55519838
0.55318716
0.52981091
0.68913195
0.81257223
0.64968996
0.54339469
0.54528391
0.55444388
0.55288236
0.54359676
0.76977227
0.81208408
0.65755944
0.54668969
0.54400862
0.55229068
0.55269807
0.5584766
0.73350391
0.81395015
0.62292982
0.54672335
0.54322481
0.55099508
0.55319402
0.56547281
0.66771888
0.82165489
0.60650755
0.54571076
0.5427977
0.54964389
0.55349377
0.56227441
0.63075274
0.84259879
0.57325216
0.54485484
0.54260848
0.5481861
0.55385473
0.56854229
0.61960723
0.84114859
0.56661953
0.54555788
0.54323227
0.5470695
0.55351377
0.51176469
0.7854579
0.81933249
0.66417394
0.53516667
0.54158613
0.55126776
0.54302786
0.4612742
0.85826262
0.81619326
0.68865207
0.53019103
0.53347555
0.54076137
0.53685764
0.5392741
0.80424479
0.81169791
0.64218264
0.53455638
0.53325794
0.53943157
0.53667847
0.54398634
0.77260668
0.81210508
0.64485135
0.53460455
0.53199851
0.53865828
0.53693231
0.5418292
0.77695583
0.81449877
0.62868942
0.53294794
0.53139601
0.53758923
0.53761658
0.54512021
0.77162141
0.82025227
0.58097678
0.53308593
0.53058203
0.53644488
0.53804199
0.54629174
0.75962638
0.83655603
0.55316769
0.53263145
0.5301966
0.53506519
0.53813242
0.55211967
0.69675881
0.77816943
0.54924206
0.53232604
0.53045121
0.5339222
0.53830917
0.4698915
0.64362518
0.84396878
0.61599174
0.52828469
0.51895046
0.5351955
0.52103979
0.46847771
0.63307385
0.8444728
0.60924014
0.52714266
0.5193372