/*--------------------------------*- C++ -*----------------------------------*\
  =========                 |
  \\      /  F ield         | OpenFOAM: The Open Source CFD Toolbox
   \\    /   O peration     | Website:  https://openfoam.org
    \\  /    A nd           | Version:  13
     \\/     M anipulation  |
\*---------------------------------------------------------------------------*/
FoamFile
{
    format      ascii;
    class       volScalarField;
    location    "0.11";
    object      p_rgh;
}
// * * * * * * * * * * * * * * * * * * * * * * * * * * * * * * * * * * * * * //

dimensions      [1 -1 -2 0 0 0 0];

internalField   nonuniform List<scalar> 
51200
(
4123.4027
4650.1461
4779.0784
4786.7623
4785.5156
4776.222
4646.2595
4118.8172
3776.3351
4437.0595
4690.374
4728.1929
4726.8557
4687.3136
4432.7941
3769.9531
3521.375
4211.3204
4573.692
4652.7454
4651.3495
4570.4254
4206.5437
3514.1257
3358.2441
3982.5452
4427.5708
4557.5545
4556.1332
4424.1036
3977.2968
3351.1203
3281.177
3777.8077
4257.6813
4436.5212
4435.1148
4254.111
3772.4239
3275.0835
3257.4384
3612.808
4077.2043
4291.9464
4290.5966
4073.6924
3607.7613
3252.8808
3271.7944
3501.8579
3892.8551
4113.1278
4111.914
3889.6681
3497.6558
3268.7673
3286.8834
3406.8237
3696.0507
3898.4914
3897.4728
3693.4095
3403.7528
3284.9428
3792.754
4369.4899
4525.2185
4556.2897
4555.0247
4522.4277
4365.615
3787.9474
3466.46
4199.3451
4487.446
4544.3196
4542.9809
4484.4945
4195.0913
3459.8012
3241.075
4010.7884
4414.933
4511.1701
4509.7834
4411.7964
4006.0052
3233.4861
3107.9501
3808.3214
4300.825
4448.4687
4447.0613
4297.4767
3803.0248
3100.4121
3062.7716
3625.898
4155.343
4353.7836
4352.3899
4151.8553
3620.4218
3056.3162
3069.939
3483.696
3996.2391
4233.5272
4232.1819
3992.7494
3478.5112
3065.0517
3115.046
3398.5721
3833.4349
4077.8043
4076.5753
3830.2085
3394.197
3111.7394
3157.2268
3324.0426
3650.2918
3876.4039
3875.3473
3647.5576
3320.7838
3155.0775
3833.7602
4468.9165
4642.0345
4680.2919
4679.0292
4639.4096
4465.2052
3828.7202
3471.6924
4279.8749
4598.9713
4664.7963
4663.4767
4596.2279
4275.801
3464.835
3222.0614
4070.5947
4518.111
4626.8642
4625.5076
4515.2032
4065.9821
3214.2231
3074.2762
3845.8349
4391.5611
4556.8906
4555.5171
4388.4303
3840.6488
3066.4109
3022.85
3643.6842
4229.9289
4451.2396
4449.8728
4226.6191
3638.2275
3015.9204
3029.7578
3485.8817
4053.3304
4318.729
4317.4095
4049.9596
3480.6354
3024.3939
3078.8821
3391.1429
3872.4056
4147.3604
4146.1391
3869.2323
3386.6397
3075.1638
3124.0373
3306.7669
3668.2027
3922.8398
3921.761
3665.4536
3303.3324
3121.5386
3838.9978
4541.3714
4742.4279
4787.3794
4786.1523
4740.0529
4538.0272
3833.9865
3440.3562
4332.6224
4693.5935
4768.596
4767.3405
4691.1713
4328.973
3433.6156
3164.7573
4101.1985
4602.9309
4725.1959
4723.9235
4600.3892
4097.017
3156.9459
3001.8125
3853.7087
4463.0896
4647.8593
4646.5805
4460.3299
3848.8841
2993.7513
2945.2294
3632.2324
4285.4678
4533.0265
4531.7583
4282.4958
3627.0121
2937.9071
2953.6851
3460.0617
4092.0528
4388.4791
4387.2376
4088.9521
3454.9092
2947.7994
3009.5888
3357.6864
3894.123
4201.0996
4199.9313
3891.1059
3353.1456
3005.3507
3062.5713
3267.5976
3671.0476
3956.6499
3955.5881
3668.363
3263.9983
3059.6
3873.0752
4640.1316
4865.8418
4916.953
4915.7833
4863.8336
4637.269
3868.2201
3438.5518
4411.9266
4811.7313
4895.6643
4894.4972
4809.7804
4408.8683
3432.1337
3137.7997
4158.991
4711.9946
4847.6799
4846.5232
4709.9899
4155.4284
3130.2326
2959.5821
3888.6086
4558.7538
4762.9222
4761.7784
4556.5538
3884.338
2951.4966
2897.053
3646.7888
4364.4029
4637.4963
4636.3731
4361.9748
3641.984
2889.4265
2905.5457
3458.709
4152.9126
4479.7355
4478.6371
4150.3013
3453.7985
2899.1775
2966.7455
3346.5981
3936.5655
4275.0687
4274.0229
3933.9343
3342.1276
2961.9647
3024.0556
3247.3726
3689.8858
4006.7753
4005.8005
3687.4098
3243.6672
3020.5846
3899.2468
4728.266
4977.8387
5035.0985
5034.0511
4976.4125
4726.3492
3895.1068
3430.5979
4481.6172
4919.092
5011.7263
5010.72
4917.8433
4479.6521
3425.0925
3105.7744
4208.3142
4810.9456
4959.5473
4958.5831
4809.7301
4205.8974
3099.0097
2912.9184
3916.2808
4645.1991
4867.8814
4866.9525
4643.8201
3913.0823
2905.2733
2844.8379
3655.2977
4435.0951
4732.5521
4731.6562
4433.4676
3651.3784
2837.243
2853.7586
3452.3329
4206.4761
4562.5016
4561.6284
4204.6065
3448.0565
2847.1183
2920.0311
3331.4148
3972.9449
4341.8681
4341.0206
3970.9235
3327.3073
2914.8403
2982.6513
3224.5208
3706.392
4051.4103
4050.5836
3704.2445
3220.8982
2978.7508
3923.5246
4808.4678
5079.6658
5142.6578
5141.7532
5078.908
4807.7686
3920.4557
3423.928
4545.0618
5016.7711
5117.5335
5116.7079
5016.3063
4544.4612
3419.6513
3077.2897
4253.2354
4901.0726
5061.6851
5060.937
4900.7475
4252.2582
3071.5989
2871.0796
3941.5033
4723.9348
4963.7667
4963.0843
4723.5039
3939.6522
2864.1138
2797.8259
3663.0272
4499.3753
4819.3387
4818.7089
4498.6919
3660.2263
2790.4866
2806.9969
3446.4284
4254.9162
4637.9413
4637.3354
4253.9224
3442.983
2800.3171
2877.7604
3317.3909
4005.6507
4402.5237
4401.9184
4004.2784
3313.8012
2872.2205
2944.8567
3203.236
3720.6844
4091.4787
4090.8425
3719.014
3199.8157
2940.603
3938.5229
4872.2392
5163.4372
5231.9484
5231.1994
5163.3356
4872.9269
3937.2455
3412.5647
4593.9094
5096.7499
5205.3372
5204.6985
5097.0774
4594.8213
3411.2719
3047.4448
4285.9212
4974.476
5146.3145
5145.7837
4975.0211
4286.5533
3042.6495
2829.9817
3957.2578
4787.3672
5042.9664
5042.5282
4787.8732
3956.8574
2823.2714
2752.3495
3663.8725
4550.2657
4890.641
4890.271
4550.4847
3662.3009
2744.9089
2761.7471
3435.7715
4292.2036
4699.4161
4699.0712
4292.0084
3433.2095
2754.7873
2836.4209
3300.0384
4029.2571
4451.2248
4450.8576
4028.6123
3297.0025
2830.3934
2907.4641
3179.9181
3728.3704
4122.3419
4121.8919
3727.1919
3176.7183
2902.782
3944.0228
4918.5684
5227.2692
5301.0964
5300.4292
5227.5704
4919.8464
3942.7376
3397.6539
4627.3774
5157.2553
5273.0925
5272.5523
5158.0554
4629.1003
3395.1483
3018.4842
4306.0442
5029.3785
5211.4169
5211.0019
5030.4531
4307.4393
3014.0928
2792.2853
3963.6924
4833.9675
5103.5385
5103.2309
4835.0063
3963.9795
2785.7373
2711.0676
3658.4081
4586.5304
4944.6374
4944.4079
4587.2746
3657.3242
2703.5234
2720.4527
3421.1878
4317.3137
4745.2531
4745.0499
4317.585
3418.9123
2713.1052
2797.9286
3280.1449
4043.0886
4486.4902
4486.2515
4042.8146
3277.2239
2791.6554
2871.8324
3155.1898
3729.1028
4142.7896
4142.4391
3728.1691
3151.9544
2866.8895
3946.8489
4947.9473
5271.8994
5347.6245
5346.9865
5272.5384
4948.2089
3942.4566
3384.5572
4646.6132
5194.5556
5317.6477
5317.1355
5195.4393
4647.9152
3378.588
2988.7015
4314.5627
5062.7233
5253.93
5253.5389
5063.8839
4315.654
2984.1059
2755.0377
3961.5867
4861.3533
5142.6249
5142.337
4862.5094
3961.918
2748.7524
2671.2885
3646.7266
4606.3104
4978.7261
4978.513
4607.1273
3645.8228
2663.8155
2680.6879
3402.3338
4328.725
4773.1402
4772.9481
4329.0227
3400.0248
2673.2734
2760.4102
3257.2347
4045.9616
4506.3604
4506.1274
4045.7045
3254.2211
2754.0648
2836.6443
3128.5466
3721.9778
4151.2765
4150.927
3721.0474
3125.1835
2831.5537
3937.1409
4955.7678
5303.5057
5367.8922
5367.2389
5303.9989
4956.8348
3934.8393
3362.975
4650.8758
5206.4903
5336.6161
5336.0962
5207.4016
4652.1211
3362.9648
2959.4394
4311.3641
5073.0464
5271.5
5271.1024
5074.1847
4311.9426
2954.2469
2720.7948
3951.3824
4868.9132
5158.0913
5157.7774
4869.9785
3952.0031
2713.4739
2634.6634
3630.0563
4609.443
4991.016
4990.7579
4610.1645
3628.6328
2626.3589
2643.8013
3380.532
4326.2681
4781.4112
4781.1624
4326.5356
3377.7947
2635.5502
2724.9637
3232.3076
4037.6033
4509.4068
4509.1188
4037.3494
3228.9217
2717.8579
2802.6997
3100.7109
3706.7491
4146.6624
4146.2687
3705.8269
3097.0761
2796.9941
3913.7958
4941.3346
5303.5259
5360.0782
5359.2016
5303.0445
4944.2036
3912.1427
3333.335
4634.235
5196.0962
5329.3426
5328.6055
5196.0089
4638.2571
3332.5776
2930.5367
4293.6742
5061.178
5263.5231
5262.9442
5061.6492
4294.5612
2924.0424
2689.1488
3929.4375
4856.5055
5149.1907
5148.7361
4857.017
3929.3807
2681.0208
2601.5436
3604.8381
4595.7658
4980.7212
4980.3566
4596.0466
3602.4411
2592.1538
2610.0806
3352.957
4310.1164
4769.2928
4768.9601
4310.0713
3349.6824
2600.9815
2691.6986
3203.3748
4018.2555
4494.8889
4494.5333
4017.746
3199.6397
2683.8126
2769.9892
3070.4298
3683.7525
4128.4422
4127.9969
3682.6173
3066.4876
2763.5928
3881.9958
4904.6798
5259.9385
5325.6931
5324.9352
5258.8556
4904.0982
3880.0646
3301.8741
4599.0059
5161.7478
5295.0343
5294.4201
5161.9409
4598.7237
3298.591
2903.8072
4260.5181
5025.7672
5229.2162
5228.7562
5026.1505
4259.9894
2897.6272
2657.2258
3896.6769
4821.7426
5115.0911
5114.7559
4822.1222
3894.6869
2649.1084
2568.9398
3571.512
4561.8475
4947.0464
4946.8004
4562.1669
3569.9845
2559.3801
2577.4102
3319.8414
4277.2083
4736.0596
4735.8546
4277.2216
3317.2256
2567.9302
2658.8843
3170.4767
3985.7919
4462.1379
4461.9058
3985.3798
3166.8335
2650.5288
2737.0896
3037.6401
3651.4911
4096.1311
4095.7921
3650.4729
3033.531
2730.2112
3834.1038
4843.7999
5193.7324
5261.391
5261.5802
5194.2715
4842.4566
3829.2087
3263.1327
4543.1147
5100.0951
5231.322
5231.7248
5101.833
4541.1831
3258.058
2870.3093
4209.7978
4965.0596
5166.3162
5166.8411
4967.4695
4206.4887
2861.626
2628.3315
3851.3654
4763.601
5053.7714
5054.4032
4765.4827
3848.8834
2620.9504
2540.899
3528.873
4507.1085
4888.1391
4888.6999
4508.8505
3529.4203
2531.7619
2548.4336
3280.3289
4226.8635
4680.0708
4680.5122
4228.0884
3278.9234
2539.9062
2628.3338
3133.0419
3939.6944
4409.841
4410.0915
3940.1384
3133.0751
2619.5405
2705.3211
3002.02
3609.7026
4048.7723
4048.7852
3609.2643
2997.4802
2697.9881
3771.7449
4759.2355
5101.8495
5169.7559
5170.3642
5102.8803
4757.0451
3770.4523
3217.0752
4467.1953
5010.0525
5138.8736
5139.6776
5012.0037
4463.7553
3214.1294
2832.6383
4143.4905
4878.1493
5075.387
5076.3542
4880.9952
4137.547
2828.109
2601.2478
3795.4335
4681.7939
4965.6571
4966.699
4684.2472
3788.1669
2592.8583
2516.012
3478.8081
4432.0605
4804.2493
4805.2604
4434.3317
3477.5818
2505.5499
2522.7157
3236.0313
4159.4294
4601.4357
4602.3005
4161.3178
3233.4777
2514.0849
2600.0835
3092.4501
3879.9333
4338.0314
4338.6354
3880.7406
3097.6617
2591.2818
2675.1013
2964.6911
3558.317
3986.3037
3986.5883
3558.0725
2961.0226
2667.792
3705.22
4650.6011
4987.7182
5049.6389
5050.9028
4989.9068
4648.7118
3699.3912
3169.6108
4371.0585
4892.1317
5018.5139
5020.1323
4895.9961
4366.9051
3164.2651
2804.9404
4059.6087
4765.0584
4957.2931
4959.0854
4769.7723
4052.864
2793.004
2574.0997
3725.833
4576.818
4851.6641
4853.5175
4580.696
3715.412
2567.6157
2492.3088
3419.9698
4337.0982
4696.3336
4698.0549
4340.5317
3417.9714
2483.1825
2499.8807
3186.106
4075.1548
4501.0905
4502.5506
4078.1853
3183.4267
2492.1184
2574.0115
3048.1102
3806.5252
4247.5527
4248.626
3808.2202
3054.6567
2565.888
2645.7214
2925.2352
3497.2537
3909.3376
3909.9741
3497.6226
2922.0695
2639.4693
3636.5277
4523.8317
4850.9306
4905.3152
4906.6499
4851.9798
4519.1853
3620.7277
3122.106
4260.5108
4753.8753
4874.9519
4876.5391
4757.226
4251.9798
3110.8235
2788.8617
3963.1399
4632.5651
4816.5238
4818.3328
4636.3966
3953.5265
2760.1699
2550.1889
3650.6982
4454.0627
4716.0211
4717.8859
4457.0691
3633.5927
2543.3304
2472.2351
3355.6628
4226.5123
4568.2666
4570.0162
4229.1877
3351.0285
2465.1397
2479.5688
3132.9433
3977.88
4382.445
4383.9718
3980.3014
3128.5436
2472.0516
2550.1913
3001.7025
3722.7299
4141.2197
4142.3717
3723.5774
3008.3811
2541.7858
2618.4123
2884.9259
3428.8281
3819.9828
3820.6791
3428.4947
2881.1774
2611.4468
3544.5622
4379.8381
4689.0829
4743.6805
4744.8653
4689.0389
4376.7297
3538.8875
3062.4838
4133.268
4598.5357
4712.1216
4713.3493
4600.5247
4126.3674
3057.4286
2749.4479
3852.1757
4483.3276
4657.0523
4658.5108
4485.8994
3845.9684
2736.3828
2529.527
3562.3079
4315.1927
4562.4491
4564.0332
4317.4115
3545.8701
2529.1456
2457.2751
3281.423
4101.294
4423.5009
4425.0594
4103.6427
3280.3044
2451.6272
2463.6101
3073.3363
3868.3652
4248.6742
4250.1067
3870.4134
3070.9004
2451.9935
2529.6655
2950.688
3629.0537
4021.8186
4022.9437
3629.6408
2959.1917
2520.7856
2593.4041
2841.4878
3353.4327
3720.4268
3721.0976
3352.8588
2839.4626
2583.5048
3447.6709
4229.7339
4518.708
4574.2074
4572.5845
4512.2876
4224.3751
3457.959
3003.7249
3998.0083
4432.9744
4536.2916
4534.8966
4429.7417
3991.7029
3011.2143
2697.396
3736.3297
4325.1986
4485.1151
4483.9447
4321.7074
3732.171
2689.066
2510.1024
3452.299
4166.7729
4397.0085
4396.18
4164.4592
3457.6891
2499.0093
2443.6019
3197.5549
3967.9512
4267.5082
4267.1029
3968.6362
3205.4048
2431.281
2447.1754
3007.0272
3752.2057
4104.6045
4104.503
3752.0552
3021.5049
2437.9839
2505.9759
2895.0427
3530.0852
3893.43
3893.4005
3529.2097
2896.2803
2499.5657
2564.5851
2794.7751
3274.0967
3613.7629
3613.5981
3273.0008
2792.5164
2558.7688
3354.3592
4062.6503
4336.6051
4393.7442
4392.4058
4335.6136
4065.1616
3355.4104
2943.8896
3854.4059
4251.3931
4345.7201
4344.9575
4251.4817
3854.3504
2972.4653
2674.6426
3610.1606
4151.0835
4299.0072
4298.4076
4150.3829
3617.7449
2651.0653
2494.4182
3366.6599
4007.1335
4218.2301
4218.0447
4005.8036
3357.1396
2481.0193
2434.101
3123.1677
3824.6854
4099.6695
4099.8081
3825.5059
3128.8205
2418.6444
2433.9029
2945.8489
3626.6405
3950.2373
3950.564
3627.7127
2948.63
2424.0951
2486.4296
2842.0893
3423.5437
3756.4384
3756.7715
3423.8875
2840.3053
2480.3753
2539.1507
2749.6689
3189.1716
3500.3162
3500.4541
3188.8924
2746.4626
2534.5883
3260.6223
3894.8408
4148.7989
4211.7655
4214.0372
4137.9377
3887.0156
3263.1842
2885.8908
3706.6986
4070.1623
4153.2697
4154.0593
4075.7642
3699.4461
2886.9895
2639.0977
3483.8137
3977.6645
4111.1943
4112.2402
3981.2457
3486.5828
2622.2331
2477.8162
3262.645
3846.4309
4037.7842
4039.1363
3848.9791
3268.4729
2470.4016
2419.3004
3041.8525
3680.5129
3930.09
3931.6989
3682.802
3045.4277
2414.5755
2416.3139
2881.4705
3500.8677
3794.1089
3795.7741
3502.993
2882.1839
2405.767
2463.5981
2787.2821
3316.7284
3617.7899
3619.2068
3318.2201
2787.2046
2455.7611
2513.2049
2703.0097
3103.7557
3385.4568
3386.4447
3103.8905
2702.5017
2505.1215
3167.786
3716.1131
3951.7307
4031.2545
4046.8714
3948.911
3716.2586
3171.1836
2855.3813
3544.7863
3886.996
3959.0881
3961.7042
3894.4762
3545.9547
2835.6035
2601.833
3349.9899
3801.9939
3921.6993
3924.8791
3808.3474
3353.6797
2588.8568
2466.8145
3148.6564
3682.1459
3855.692
3859.0013
3686.1249
3150.7723
2451.9099
2402.011
2959.7519
3533.2277
3758.8854
3762.3231
3536.0297
2960.1628
2401.3367
2407.5607
2821.4928
3372.3877
3636.5227
3639.8702
3374.7345
2816.6894
2393.4935
2447.0627
2734.3813
3207.3784
3477.8759
3480.7378
3209.467
2731.3475
2435.8128
2488.7157
2657.7936
3016.0034
3269.4034
3271.5267
3017.036
2653.6467
2480.751
3097.2611
3561.756
3765.4253
3860.0902
3874.4995
3757.663
3552.0143
3075.6918
2862.6815
3399.4916
3708.1633
3768.5577
3770.5884
3715.9539
3397.9549
2806.1014
2584.5389
3224.1818
3631.1125
3735.6395
3738.6235
3635.9453
3228.4129
2556.188
2457.7548
3043.024
3521.4863
3676.5813
3679.8054
3525.119
3048.7219
2425.2928
2384.044
2891.8658
3388.3368
3590.1336
3593.8198
3390.0977
2893.8231
2378.131
2390.4256
2760.2565
3245.6037
3480.9955
3484.7822
3247.5602
2764.5282
2373.7788
2414.4768
2683.8747
3098.8962
3339.6433
3343.0763
3101.0955
2686.9369
2414.2461
2452.5802
2617.4953
2928.63
3154.314
3156.9903
2929.9382
2622.3662
2451.7105
2993.5898
3407.9828
3591.0157
3688.7423
3689.2492
3578.9124
3388.7144
2954.9199
2798.6867
3265.5479
3526.7623
3579.1806
3581.02
3528.0638
3255.0329
2693.4299
2539.1471
3114.4511
3458.1271
3550.5575
3552.8535
3458.2086
3109.651
2517.5415
2418.9423
2955.0489
3360.7083
3498.704
3501.1366
3363.1191
2949.3631
2405.427
2372.4017
2810.2314
3244.4696
3422.6431
3425.769
3245.7682
2813.9667
2349.3725
2370.1851
2688.1993
3118.976
3326.875
3330.056
3123.1088
2689.6057
2351.5152
2395.25
2619.4871
2990.6952
3202.6466
3205.5541
2993.5311
2645.4919
2386.9895
2426.8298
2558.9147
2842.1311
3039.9344
3042.1717
2843.1298
2558.6029
2421.44
2879.0279
3228.3624
3429.0973
3525.3455
3515.4039
3423.0357
3260.3896
2862.497
2652.75
3118.024
3354.2795
3399.9041
3396.187
3363.6491
3131.4821
2671.7582
2471.0557
2985.3808
3296.7875
3375.7333
3372.5168
3298.5002
3004.9282
2478.2625
2382.7068
2868.0007
3215.0784
3331.063
3328.6475
3215.4995
2865.1292
2442.2281
2343.5906
2723.923
3111.2166
3265.1996
3263.9309
3114.6578
2740.6171
2329.734
2341.0245
2624.5201
3001.0266
3181.472
3181.2238
3008.5065
2635.0831
2329.4886
2367.8858
2566.2831
2889.2591
3072.8958
3073.0847
2893.6382
2587.968
2359.8977
2392.8492
2514.8097
2759.2347
2930.9803
2931.1016
2761.0938
2504.8951
2388.5013
2795.5091
3103.1536
3271.4959
3378.0403
3394.4431
3256.0614
3087.4962
2775.3734
2575.3336
3009.3935
3189.1183
3227.203
3226.8339
3220.2612
2996.5849
2557.1735
2449.4349
2883.6316
3138.2536
3207.2925
3212.138
3163.5759
2881.7413
2444.5634
2379.1685
2764.0892
3068.2457
3169.34
3176.2485
3086.5115
2752.9836
2339.796
2321.7297
2638.2778
2979.5034
3112.7917
3119.9439
2994.4416
2666.7925
2309.7925
2322.4919
2558.6715
2885.3216
3040.6425
3047.6689
2903.2559
2567.593
2308.813
2339.2181
2507.9185
2789.0251
2947.1045
2953.1757
2802.7914
2549.9721
2335.1272
2363.8711
2461.9989
2676.9453
2824.9484
2829.4647
2686.3975
2458.3968
2357.357
2739.0858
2958.6446
3106.1148
3244.583
3259.347
3111.2211
2974.0128
2730.1946
2535.195
2878.9645
3049.019
3069.0075
3069.7106
3081.0223
2891.5561
2529.3259
2444.3593
2785.6494
3001.0913
3052.8103
3059.9224
3036.3499
2796.4761
2446.6398
2331.9987
2660.2355
2937.7863
3020.6761
3032.8109
2964.9467
2680.6109
2318.1987
2292.7015
2571.658
2862.3527
2972.1828
2983.5055
2879.0637
2616.196
2293.4022
2284.7993
2500.6273
2782.1425
2910.4046
2921.0069
2801.4959
2509.2176
2302.8836
2310.3586
2453.2258
2698.9006
2830.2255
2839.3652
2713.3825
2494.1282
2295.8972
2330.0564
2414.0277
2601.6054
2725.5132
2732.3406
2612.0809
2402.739
2318.443
2651.0358
2839.2318
2944.4166
3111.0594
3055.2274
2953.4022
2862.7889
2631.644
2466.8313
2776.845
2914.8997
2912.473
2906.5616
2927.1738
2788.2313
2450.5146
2444.5171
2682.4715
2866.421
2903.6901
2908.4923
2927.9632
2700.013
2385.7953
2290.7865
2587.6161
2810.3885
2876.995
2887.1351
2827.8552
2615.3463
2282.1515
2258.2146
2513.1876
2747.5614
2837.483
2847.0247
2758.9883
2524.2357
2264.558
2258.8176
2446.084
2681.1342
2786.3187
2795.3563
2694.2731
2493.4579
2263.1447
2271.629
2397.7465
2609.6134
2718.7356
2726.4459
2619.6243
2404.3587
2275.1041
2289.3469
2364.7301
2526.6123
2629.9531
2635.8096
2535.1586
2364.7439
2289.0802
2547.3557
2738.0566
2846.3924
2888.2413
2823.5679
2784.1511
2726.7496
2497.1907
2403.5068
2696.4567
2794.9386
2772.8674
2780.673
2852.7649
2673.9107
2356.8032
2339.7068
2639.3148
2759.2991
2766.3011
2772.9236
2834.5206
2609.8179
2319.0197
2297.5257
2537.3194
2708.0377
2752.9432
2766.6757
2736.9145
2506.4717
2258.379
2224.0246
2463.2982
2650.4645
2720.3763
2733.0819
2673.4005
2470.6117
2226.7917
2223.9604
2368.8198
2590.2544
2677.9804
2689.7274
2610.4445
2401.451
2226.9411
2240.3669
2337.1144
2529.5336
2620.7465
2630.7269
2544.7146
2358.3148
2241.3299
2254.3972
2310.4358
2458.9365
2544.9633
2552.3537
2470.3899
2324.7054
2254.3777
2430.834
2646.3828
2709.4685
2678.6739
2656.6657
2706.199
2678.623
2468.0479
2333.5822
2569.5814
2679.4413
2670.0292
2676.3381
2767.5849
2615.2457
2363.9352
2246.1858
2514.2931
2661.2146
2653.2099
2653.7483
2701.243
2558.863
2285.4206
2258.2273
2433.0127
2617.8535
2645.4739
2650.3875
2647.6815
2451.9581
2275.1185
2209.0701
2362.935
2559.5435
2620.5784
2621.6498
2557.6201
2395.8487
2182.4759
2204.4957
2309.562
2503.4712
2584.0263
2585.1809
2500.9612
2311.4763
2187.0791
2214.8247
2283.3054
2451.4559
2534.3994
2535.7445
2448.4896
2283.4571
2199.4917
2222.6182
2260.8133
2391.3414
2468.3875
2469.5705
2389.0348
2260.3421
2211.8812
2345.6368
2529.1362
2558.3233
2584.55
2576.8636
2596.3179
2569.1323
2338.2606
2279.5834
2392.8875
2575.0489
2581.0021
2617.4198
2587.5017
2502.9533
2254.1947
2199.783
2416.7251
2591.1303
2562.2378
2556.9256
2599.5596
2426.7046
2186.1267
2209.6679
2357.557
2569.8744
2541.236
2539.17
2487.6131
2373.8763
2213.1514
2180.8962
2387.1349
2461.5467
2518.8989
2518.2687
2448.4959
2299.3534
2183.2017
2163.8718
2279.3458
2413.8431
2488.1856
2487.4434
2406.3036
2257.8824
2174.8947
2172.2984
2246.1504
2369.3652
2446.4299
2446.0308
2364.5359
2235.4016
2177.4325
2179.3882
2222.3323
2319.6557
2390.515
2390.3344
2315.7267
2214.7532
2182.35
2310.6562
2471.7157
2459.5355
2479.3479
2439.9611
2445.2141
2555.2403
2316.8438
2249.7056
2346.6181
2451.2133
2480.3277
2488.4416
2445.92
2430.7046
2264.2024
2182.103
2387.2729
2464.0511
2476.1955
2482.011
2609.3909
2360.1592
2203.7218
2139.8601
2321.2807
2517.3219
2445.8108
2455.8934
2382.1757
2321.3301
2175.4414
2120.3913
2291.3915
2352.9629
2423.0613
2432.7559
2352.5163
2226.5173
2173.5579
2130.2571
2250.7865
2322.108
2396.0776
2403.8079
2321.5836
2198.3282
2122.7518
2129.5362
2186.2757
2285.3625
2361.1715
2367.4009
2288.4723
2179.6822
2126.9333
2134.3182
2166.5836
2246.462
2314.4526
2319.4132
2248.9418
2163.1563
2131.0659
2290.7667
2363.0508
2327.3478
2371.4677
2283.8625
2254.7376
2454.8718
2227.014
2154.778
2254.0666
2319.9322
2357.5743
2315.4244
2253.4944
2304.1215
2219.6035
2121.5193
2316.3077
2304.4058
2362.5268
2390.0607
2514.7642
2276.3177
2150.9848
2099.2467
2229.8689
2389.9213
2349.3265
2375.4815
2345.6708
2251.997
2125.6677
2090.2707
2231.7965
2272.0382
2329.8484
2347.4094
2303.0525
2170.0515
2111.8763
2094.328
2172.6926
2251.7089
2308.7615
2321.0581
2271.7541
2147.4964
2089.2102
2114.6731
2147.2942
2221.8541
2280.6495
2289.7327
2240.2268
2130.6992
2089.7048
2092.9749
2127.3834
2189.0977
2242.3944
2249.121
2203.316
2120.1497
2094.3031
2254.0252
2334.9423
2275.7352
2280.7109
2249.58
2189.0379
2271.6441
2186.0321
2106.4189
2271.2123
2243.9137
2275.8987
2277.0509
2184.0707
2178.5256
2162.4026
2088.2203
2261.6345
2237.6648
2274.5304
2341.1912
2288.501
2158.7606
2084.8567
2071.5944
2215.4275
2224.8385
2260.3775
2333.3328
2280.7811
2136.6149
2073.9045
2062.6896
2191.877
2184.1997
2239.57
2235.9468
2212.9764
2113.72
2056.226
2063.473
2082.4903
2161.6986
2221.2738
2216.8586
2186.9585
2105.6654
2041.0185
2064.5865
2072.0465
2141.7117
2198.5456
2194.9896
2162.1746
2092.6587
2045.3345
2058.3165
2062.2388
2118.7107
2168.2317
2165.0959
2132.7474
2072.3741
2050.1637
2155.8454
2176.8753
2275.9849
2193.4072
2201.9842
2147.4401
2139.7458
2190.6772
2050.6957
2138.5157
2176.7453
2191.082
2209.9249
2170.9444
2107.7053
2086.8965
2032.1418
2116.4918
2160.1326
2189.916
2269.1609
2149.4046
2083.4529
2061.5312
2018.2225
2092.8815
2146.2753
2184.5939
2269.8037
2299.2877
2083.9979
2026.7048
2009.8162
2071.539
2119.0232
2167.0032
2152.1072
2114.3032
2069.2397
2010.2451
2013.389
2054.0374
2103.6822
2149.9907
2137.8121
2095.0388
2039.4994
1997.1202
2011.3766
2043.4874
2087.4371
2130.6989
2121.073
2079.6438
2030.119
2000.588
2013.7068
2034.0954
2067.6526
2105.658
2097.9123
2060.2963
2019.1792
2004.4251
2078.2352
2138.4362
2110.6139
2114.6431
2149.9739
2091.5578
2035.3955
2103.5843
2000.2444
2068.4183
2135.4073
2115.2798
2148.561
2122.3174
2026.3999
1991.7565
1981.8544
2054.3737
2143.314
2114.1551
2205.5797
2067.325
2010.7416
1982.4719
1969.7999
2033.9999
2096.8323
2109.972
2203.9341
2161.2439
2016.0604
1964.7775
1967.0695
2015.9333
2070.7555
2097.4417
2075.9373
2075.6821
2004.788
1959.253
1968.5398
2003.1486
2053.9156
2080.7179
2066.1942
2049.7843
1987.0357
1953.9958
1968.3776
1995.6931
2038.6254
2064.4682
2053.4934
2033.5237
1980.918
1956.6759
1971.3282
1987.2927
2020.5972
2043.9606
2035.6069
2015.9579
1974.0155
1959.9922
2008.2967
2063.2699
2045.5169
2077.871
2113.5354
2084.8253
2055.1849
2004.564
1964.7793
2016.6017
2041.4062
2088.9944
2107.9569
2116.8684
1975.5975
1932.5436
1945.1187
2002.0741
2047.8043
2058.7522
2162.0471
2050.6404
1967.7556
1932.2027
1935.2695
1983.5124
2036.2634
2059.295
2161.2219
2050.2188
1936.278
1924.1631
1933.6539
1959.0017
2012.0676
2007.4192
2002.3152
2022.6951
1935.738
1920.1256
1932.4658
1947.3474
1993.4546
1997.6104
1997.3937
1996.8198
1930.917
1916.2694
1929.0442
1941.984
1979.1615
1987.4684
1987.0365
1980.4774
1927.3516
1917.2935
1928.2996
1935.4852
1963.7217
1972.9151
1972.9084
1965.2472
1923.2349
1916.5086
1925.4205
1963.4738
2029.2162
2045.0357
2049.6718
1994.2232
1980.9833
1899.5278
1908.0741
1961.6926
2062.6034
2087.751
2047.9806
2024.2346
1958.1259
1889.2457
1889.7921
1985.2148
1985.4433
2011.045
2103.2951
1987.3203
1978.9712
1881.0246
1883.0213
2028.8876
1980.2363
2013.8783
2134.3299
1986.8409
1900.2248
1867.5012
1887.9013
1910.2335
1957.5473
1930.0067
1926.19
1974.019
1887.751
1867.3025
1887.1237
1894.2965
1937.2015
1930.0851
1931.9399
1958.5114
1887.1784
1868.1376
1886.0191
1888.5574
1925.6204
1924.8426
1924.4881
1935.038
1884.0974
1868.953
1884.5207
1884.7063
1913.0408
1914.8943
1913.6375
1919.4838
1880.4405
1870.1085
1852.7921
1900.4114
1945.7334
1903.0502
1918.1925
1922.7838
2038.6557
1889.6893
1925.3383
1900.8799
1962.6395
1899.2299
1935.8031
1940.0061
1902.3701
1849.8421
1874.0051
1896.706
1895.0694
1908.1789
1995.4591
1940.2166
1897.3152
1846.0269
1881.1345
1933.8067
1923.8443
1907.943
2046.2888
1948.5076
1901.0388
1829.8239
1849.4174
1892.1599
1910.7364
1896.1487
1865.5482
1946.1513
1810.3549
1829.075
1846.7422
1849.0849
1887.4817
1890.1531
1866.7155
1930.0532
1824.2198
1824.4592
1844.5432
1843.2322
1875.3993
1884.8393
1866.7548
1908.7199
1831.4265
1824.8939
1842.8964
1839.976
1865.3458
1873.6186
1855.7294
1882.4926
1830.0049
1826.228
1800.3998
1918.644
1898.2673
1849.3024
1842.8259
1845.1926
1889.2174
1843.2588
1846.2604
1835.3518
1902.8313
1847.0819
1866.3824
1859.2445
1826.6759
1835.2681
1821.9329
1882.2817
1849.408
1848.623
1839.4398
1849.2253
1802.7897
1835.7193
1888.7195
1840.9055
1868.1995
1850.6794
1883.2762
1858.3082
1792.5783
1840.841
1874.301
1827.4912
1857.816
1843.9305
1804.6637
1863.0451
1781.9334
1804.9916
1804.733
1786.1885
1820.3017
1827.1449
1802.4167
1897.5325
1775.4638
1783.0709
1799.2768
1784.9694
1809.3341
1823.9662
1809.0431
1881.179
1788.2119
1783.5261
1795.6986
1784.5574
1803.4019
1815.3586
1801.5727
1846.5529
1790.8344
1784.5956
1772.7372
1779.5596
1843.0531
1783.5908
1779.4713
1774.362
1836.5662
1853.9079
1764.4909
1721.6638
1861.1896
1777.8723
1768.497
1786.9813
1820.5109
1808.7788
1793.5556
1862.4348
1806.9181
1784.7866
1779.8684
1775.4569
1791.2622
1876.4709
1814.9592
1803.4314
1798.9969
1810.9247
1790.0854
1767.4319
1814.4225
1765.2221
1837.2608
1772.9727
1791.7676
1802.7722
1776.7088
1766.9016
1764.4151
1779.3429
1738.332
1733.1382
1773.5726
1773.2021
1766.5358
1822.2218
1764.7045
1748.6884
1737.6583
1735.597
1760.3848
1767.6417
1756.0471
1873.7566
1703.3378
1743.7007
1736.8562
1735.2432
1754.6574
1760.0822
1749.7422
1760.4605
1717.2957
1740.5205
1705.3803
1735.0772
1774.2944
1735.486
1738.5567
1715.009
1783.2151
1728.0668
1701.9611
1675.01
1796.7028
1713.9655
1703.1379
1713.8512
1779.7107
1698.4253
1743.9474
1784.8172
1767.3884
1883.632
1720.3253
1713.0401
1750.6843
1762.4054
1736.7019
1746.8104
1748.7499
1796.8414
1716.2634
1722.5263
1814.2676
1729.7289
1812.7886
1711.4736
1746.4051
1804.7526
1709.3357
1705.0106
1744.6605
1734.305
1677.7559
1679.5314
1735.5464
1692.4883
1701.0365
1692.3836
1766.0267
1739.4435
1680.616
1684.8348
1722.2723
1695.7902
1695.6264
1724.7902
1658.0855
1718.3323
1681.9855
1684.0884
1708.1753
1691.9127
1692.1871
1673.0341
1659.1564
1702.5218
1521.1454
1688.2294
1694.5921
1676.2928
1705.4657
1687.642
1739.9645
1697.5498
1522.9247
1636.4705
1730.6692
1615.1237
1652.259
1684.7789
1737.3333
1668.7745
1630.3024
1653.1194
1712.0667
1779.502
1656.1273
1708.4263
1712.6708
1682.4391
1640.4275
1652.2928
1698.5838
1677.5291
1652.8012
1660.6635
1778.3367
1707.8525
1730.3502
1638.555
1704.5965
1702.8482
1648.9297
1651.4121
1691.4523
1669.0944
1664.3351
1635.6598
1693.9166
1642.0315
1646.7686
1637.8873
1709.3664
1671.8833
1656.5466
1640.4064
1686.5678
1649.2642
1642.6295
1631.1979
1608.9672
1659.0763
1651.7768
1638.5613
1666.0707
1645.7498
1639.6769
1630.4089
1603.348
1643.8933
1618.1106
1623.7255
1662.5811
1690.2894
1657.4576
1636.1075
1679.9964
1631.726
1598.1804
1585.9491
1691.9258
1584.8832
1598.4249
1633.8399
1676.9249
1614.1743
1644.1852
1581.975
1674.2589
1617.5889
1599.1144
1706.6338
1654.4519
1636.4211
1641.9792
1578.9957
1650.8062
1603.9671
1595.782
1602.034
1708.3707
1666.3545
1623.0398
1577.3798
1662.1068
1589.613
1593.2853
1589.3662
1631.3037
1630.7799
1628.2679
1584.4042
1654.936
1592.1585
1592.2741
1583.8178
1637.6325
1620.066
1570.5442
1588.1042
1649.2169
1590.166
1586.6431
1579.6047
1557.8255
1596.614
1575.6601
1588.1176
1631.0103
1587.4781
1584.235
1578.725
1552.2182
1585.2486
1513.9314
1553.1351
1676.172
1668.9838
1612.5275
1580.9051
1662.0171
1580.9065
1513.7284
1507.4311
1588.8615
1540.1213
1545.8332
1584.7462
1656.9192
1554.2787
1499.5352
1533.1695
1771.7676
1554.7463
1546.5149
1634.5949
1643.2652
1559.236
1527.0664
1536.3664
1563.0006
1545.6454
1543.0182
1549.0066
1702.7017
1619.1714
1508.9946
1537.2134
1584.7727
1539.5174
1539.3576
1542.5336
1627.6119
1604.851
1577.9673
1532.8925
1623.3226
1532.0888
1538.5795
1528.6743
1673.6449
1600.0057
1562.2104
1534.3989
1621.7155
1531.1419
1531.7503
1520.7553
1473.8209
1532.4903
1546.8878
1537.0073
1611.9995
1532.029
1529.2286
1521.9473
1482.2595
1524.1789
1495.842
1537.1885
1531.0826
1627.452
1560.2667
1498.1307
1495.5643
1572.3736
1499.6107
1454.856
1436.9272
1490.524
1481.7157
1495.0521
1501.8461
1465.9506
1483.4009
1473.1963
1630.7144
1495.2018
1482.8665
1491.2884
1492.5631
1491.1662
1532.7924
1473.0925
1560.5615
1492.0888
1482.5387
1480.6738
1475.2695
1496.2523
1521.9749
1470.8041
1551.4364
1488.2909
1481.6701
1482.4816
1577.9772
1515.4969
1514.1782
1490.9501
1572.3103
1487.0703
1479.8278
1475.7751
1567.7115
1541.3195
1523.8421
1462.9143
1622.2536
1478.2905
1477.65
1471.3637
1535.1531
1482.3759
1461.8606
1469.1639
1592.4229
1478.4861
1475.5354
1470.1707
1499.7393
1481.4871
1468.5668
1554.9479
1543.2794
1567.9192
1512.5522
1433.6038
1500.2902
1468.2594
1479.5715
1435.3621
1466.415
1430.0086
1423.2355
1428.1895
1509.3059
1402.3218
1437.0991
1466.1528
1464.7055
1430.5662
1423.6178
1441.4884