/*--------------------------------*- C++ -*----------------------------------*\
  =========                 |
  \\      /  F ield         | OpenFOAM: The Open Source CFD Toolbox
   \\    /   O peration     | Website:  https://openfoam.org
    \\  /    A nd           | Version:  13
     \\/     M anipulation  |
\*---------------------------------------------------------------------------*/
FoamFile
{
    format      ascii;
    class       surfaceScalarField;
    location    "0.11";
    object      phi;
}
// * * * * * * * * * * * * * * * * * * * * * * * * * * * * * * * * * * * * * //

dimensions      [0 3 -1 0 0 0 0];

internalField   nonuniform List<scalar> 
150720
(
2.820494e-10
2.2225898e-09
7.2016594e-10
3.6933938e-10
1.2788947e-10
2.8747422e-09
8.735623e-10
-1.82669e-11
2.8630809e-09
8.7721998e-10
9.7391939e-14
2.7370356e-09
8.3874463e-10
1.8099468e-11
2.7373424e-09
8.3880011e-10
-1.2871798e-10
2.8636321e-09
8.7732987e-10
-2.8627873e-10
2.8780481e-09
8.7365718e-10
2.213911e-09
7.2022765e-10
3.7372718e-10
1.2466396e-09
3.205987e-09
1.702009e-09
-4.7194246e-10
4.5040393e-10
5.1385819e-09
1.9924992e-09
-2.4129932e-11
4.8044006e-09
1.9933175e-09
-1.149107e-13
4.2561985e-09
1.9169254e-09
2.3234702e-11
4.257074e-09
1.917022e-09
-4.5315296e-10
4.8065818e-09
1.9935412e-09
-1.2561671e-09
5.1484841e-09
1.9926814e-09
3.1876326e-09
1.7020586e-09
-4.7184417e-10
1.0325349e-09
3.8081506e-09
2.3277919e-09
-6.3642849e-10
2.4902988e-10
6.6311343e-09
2.6170146e-09
-1.1396859e-10
5.8906219e-09
2.6028391e-09
1.2770405e-13
4.954014e-09
2.5141502e-09
1.1343566e-10
4.9556039e-09
2.5142241e-09
-2.5170599e-10
5.8948185e-09
2.602967e-09
-1.0399912e-09
6.6457938e-09
2.6170375e-09
3.7853873e-09
2.3277187e-09
-6.3940252e-10
6.0393665e-10
4.1882551e-09
2.7288272e-09
-5.2084776e-10
3.9083585e-11
7.4356945e-09
2.9523135e-09
-1.4392127e-10
6.3445861e-09
2.9210614e-09
4.964312e-13
5.1683278e-09
2.8332892e-09
1.4412784e-10
5.1706671e-09
2.833326e-09
-4.0532286e-11
6.3504588e-09
2.9210404e-09
-6.0717351e-10
7.4523156e-09
2.95214e-09
4.1661978e-09
2.7286972e-09
-5.2466051e-10
1.607112e-10
4.4926389e-09
2.9615395e-09
-3.6865522e-10
-1.146733e-10
7.6627047e-09
3.1063536e-09
-1.191735e-10
6.340497e-09
3.0665686e-09
6.1486289e-13
5.1199111e-09
2.9866076e-09
1.1985925e-10
5.1227774e-09
2.9866247e-09
1.1467205e-10
6.3471748e-09
3.0664505e-09
-1.6029e-10
7.6791952e-09
3.1060617e-09
4.4759939e-09
2.9613415e-09
-3.7344837e-10
-2.4613862e-10
4.7733191e-09
3.07094e-09
-1.8154364e-10
-2.4369588e-10
7.4462766e-09
3.1379234e-09
-7.6045973e-11
6.0038843e-09
3.0929008e-09
5.3431907e-13
4.9453305e-09
3.0219383e-09
7.711223e-11
4.9481824e-09
3.0219551e-09
2.4501164e-10
6.0104689e-09
3.0927445e-09
2.4927364e-10
7.4612943e-09
3.1375769e-09
4.7648914e-09
3.0707273e-09
-1.8641312e-10
-5.1083416e-10
4.9889309e-09
3.0809705e-09
4.1486424e-12
-2.5698853e-10
6.8951355e-09
3.0871922e-09
2.1560166e-11
5.4629215e-09
3.0523109e-09
-1.8744139e-13
4.7591861e-09
2.9977888e-09
-2.1383598e-11
4.7614532e-09
2.997822e-09
2.5890101e-10
5.4679372e-09
3.0521438e-09
5.1506598e-10
6.9082254e-09
3.0868008e-09
4.9897686e-09
3.0807221e-09
-6.3655891e-13
-6.4995029e-10
3.0346722e-09
9.7778224e-11
5.1622862e-09
-8.8561704e-11
3.0033725e-09
5.9862298e-09
3.2057531e-10
2.9761628e-09
4.7334771e-09
-6.4007558e-13
2.9320106e-09
4.8042463e-09
-3.2014674e-10
2.932048e-09
4.8047673e-09
9.2597752e-11
2.9759767e-09
4.7350714e-09
6.547188e-10
3.0029283e-09
5.9990315e-09
3.0343138e-09
9.4312519e-11
5.1717165e-09
3.8011058e-10
-3.2070433e-10
3.2870823e-10
3.3205144e-10
1.3516695e-10
6.4975114e-10
4.6875478e-10
-5.6250817e-11
5.8333327e-10
4.8530446e-10
2.9385938e-13
3.2472312e-10
4.5747682e-10
5.6257246e-11
3.2530999e-10
4.5752672e-10
-1.362722e-10
5.8445903e-10
4.8540028e-10
-3.8485683e-10
6.5336693e-10
4.6887488e-10
-3.2991097e-10
3.2909517e-10
3.3618661e-10
1.5247959e-09
-5.3400082e-10
1.0292193e-09
-6.3870974e-10
4.5788291e-10
2.3763466e-09
1.3328168e-09
-1.2103575e-10
1.8026652e-09
1.3529041e-09
4.0716133e-13
8.3357058e-10
1.286635e-09
1.2060811e-10
8.3542252e-10
1.2867085e-09
-4.6140767e-10
1.8069343e-09
1.3530817e-09
-1.5361277e-09
2.3877209e-09
1.3330474e-09
-5.5503804e-10
1.0299009e-09
-6.3884287e-10
1.1897315e-09
-2.3147238e-10
1.5914503e-09
-7.5591828e-10
1.1457296e-10
4.1512887e-09
1.917231e-09
-2.8013162e-10
2.8855404e-09
1.9146685e-09
8.374029e-13
1.2363444e-09
1.8304074e-09
2.8035885e-10
1.2397225e-09
1.8304027e-09
-1.1805848e-10
2.8937575e-09
1.9145611e-09
-1.1994529e-09
4.1690712e-09
1.9170816e-09
-2.5918775e-10
1.5918403e-09
-7.5942492e-10
5.5471002e-10
4.4346713e-10
2.0177254e-09
-5.1854771e-10
-2.3550894e-10
5.5942012e-09
2.2996199e-09
-3.6472851e-10
3.6648746e-09
2.2709468e-09
1.2581815e-12
1.5217471e-09
2.1818997e-09
3.6577451e-10
1.5267365e-09
2.1817956e-09
2.3330355e-10
3.6768108e-09
2.2704581e-09
-5.6040712e-10
5.6159395e-09
2.2989824e-09
4.148335e-10
2.0176536e-09
-5.2338486e-10
-1.1458108e-10
1.3973871e-09
2.3310698e-09
-2.0886915e-10
-5.0671028e-10
6.535121e-09
2.557563e-09
-3.6861883e-10
4.0772408e-09
2.516111e-09
1.2872059e-12
1.7075919e-09
2.4308568e-09
3.7006557e-10
1.7138872e-09
2.4306956e-09
5.0585735e-10
4.0921028e-09
2.5153668e-09
1.1244476e-10
6.5588243e-09
2.5565895e-09
1.3735447e-09
2.3306301e-09
-2.1555499e-10
-7.2689671e-10
2.4784368e-09
2.5464215e-09
1.7036553e-10
-7.2690209e-10
6.9535497e-09
2.7195001e-09
-3.2150576e-10
4.0901159e-09
2.6746293e-09
9.4972995e-13
1.8105598e-09
2.5965148e-09
3.229295e-10
1.8175432e-09
2.5963194e-09
7.2767645e-10
4.1063798e-09
2.6737205e-09
7.2816172e-10
6.977649e-09
2.718267e-09
2.4645804e-09
2.5455628e-09
1.6229054e-10
-1.1531657e-09
3.5031561e-09
2.6740806e-09
5.3533625e-10
-7.7938387e-10
6.8551191e-09
2.8118409e-09
-2.0023194e-10
3.7768496e-09
2.7864252e-09
-2.2923691e-13
1.8818052e-09
2.7265407e-09
2.0006663e-10
1.8887094e-09
2.7263599e-09
7.8061438e-10
3.792509e-09
2.7854669e-09
1.1555803e-09
6.8790717e-09
2.8104121e-09
3.5007156e-09
2.6727621e-09
5.2740511e-10
-1.3703047e-09
2.7297222e-09
7.3597559e-10
4.4424351e-09
-5.387425e-10
2.8511996e-09
6.1757299e-09
1.7373336e-10
2.8364876e-09
3.2040489e-09
-1.379465e-12
2.7887628e-09
2.2001658e-09
-1.7478502e-10
2.7885928e-09
2.2055702e-09
5.4134203e-10
2.835496e-09
3.2168626e-09
1.3732361e-09
2.8496199e-09
6.200486e-09
2.7279898e-09
7.2868284e-10
4.4515928e-09
3.9454652e-10
-6.5419539e-10
2.2796835e-10
3.6038875e-10
1.112664e-10
4.1394757e-10
3.3808731e-10
-9.1687747e-11
3.3439008e-10
3.5386852e-10
3.3882344e-13
2.6836006e-11
3.3861424e-10
9.1679276e-11
2.758732e-11
3.3859894e-10
-1.1252685e-10
3.3576674e-10
3.5383966e-10
-3.9912421e-10
4.1733364e-10
3.3813859e-10
-6.628352e-10
2.2854083e-10
3.6426533e-10
1.614087e-09
-1.2702549e-09
7.2870806e-10
-6.9751629e-10
4.0744468e-10
1.9652171e-09
9.8818956e-10
-2.0826803e-10
1.2868673e-09
1.0161397e-09
4.8406917e-13
1.2481256e-10
9.7990635e-10
2.0781733e-10
1.2716374e-10
9.7979884e-10
-4.114652e-10
1.2921971e-09
1.0159338e-09
-1.6259127e-09
1.976667e-09
9.8816158e-10
-1.2919245e-09
7.2979817e-10
-6.9672074e-10
1.2025179e-09
-1.222707e-09
1.1466791e-09
-8.0529468e-10
-1.6187356e-11
3.6650985e-09
1.4360548e-09
-4.1002839e-10
2.1471537e-09
1.448223e-09
8.275776e-13
1.4273374e-10
1.4016302e-09
4.1003334e-10
1.4704078e-10
1.4013199e-09
1.1876079e-11
2.1575423e-09
1.4473732e-09
-1.2134191e-09
3.6838261e-09
1.4352177e-09
-1.252798e-09
1.1472607e-09
-8.0796593e-10
4.5653237e-10
-6.442631e-10
1.4967518e-09
-5.1400266e-10
-4.2508214e-10
5.0827687e-09
1.7635643e-09
-5.1842605e-10
2.7542317e-09
1.7572126e-09
1.088205e-12
9.6644208e-11
1.708475e-09
5.1895043e-10
1.0302291e-10
1.7079512e-09
4.2166921e-10
2.7696501e-09
1.7556315e-09
-4.6394141e-10
5.1066695e-09
1.7617497e-09
-6.7705934e-10
1.4964611e-09
-5.1848756e-10
-3.0764969e-10
3.3702211e-10
1.7858412e-09
-1.2840694e-10
-7.5321963e-10
6.0586128e-09
2.0272888e-09
-5.2721106e-10
3.0256799e-09
2.0186542e-09
9.3095965e-13
2.4883973e-11
1.974475e-09
5.2780581e-10
3.3030302e-11
1.9738134e-09
7.5099526e-10
3.0452554e-09
2.016572e-09
3.0419129e-10
6.0853121e-09
2.0247509e-09
3.0865361e-10
1.7846775e-09
-1.355691e-10
-1.0272905e-09
1.5546653e-09
2.0155489e-09
3.4051992e-10
-1.0100509e-09
6.5244616e-09
2.2364117e-09
-4.7037256e-10
2.9236132e-09
2.2370177e-09
3.5679473e-13
-5.0892851e-11
2.2015623e-09
4.7059221e-10
-4.1708704e-11
2.200823e-09
1.009351e-09
2.9456141e-09
2.2346029e-09
1.0268757e-09
6.5527485e-09
2.233306e-09
1.5360582e-09
2.0135108e-09
3.3152311e-10
-1.5243386e-09
2.7909505e-09
2.1850718e-09
7.7706218e-10
-1.0661812e-09
6.4748292e-09
2.4033159e-09
-3.2074699e-10
2.5273812e-09
2.437223e-09
-1.0772538e-12
-6.6376147e-11
2.4223542e-09
3.1899275e-10
-5.7042102e-11
2.4216233e-09
1.0657168e-09
2.5496127e-09
2.4347443e-09
1.5250739e-09
6.5039632e-09
2.3998403e-09
2.7847329e-09
2.1821069e-09
7.6705427e-10
-1.7777301e-09
2.3103391e-09
1.0313578e-09
3.9567059e-09
-7.8393627e-10
2.5380947e-09
5.7941403e-09
1.0435903e-10
2.5927328e-09
1.8828407e-09
-2.5634524e-12
2.5905352e-09
2.3877393e-10
-1.0768418e-10
2.5898119e-09
2.4685954e-10
7.8461518e-10
2.5902055e-09
1.9026037e-09
1.7790711e-09
2.53435e-09
5.8247772e-09
2.3065704e-09
1.0214767e-09
3.9637467e-09
4.0842949e-10
-7.5233719e-10
1.7868124e-10
3.9319479e-10
8.8979363e-11
3.7969396e-10
2.7784346e-10
-1.1911761e-10
2.6314401e-10
2.9882148e-10
3.7185506e-13
-7.2517488e-11
2.9164225e-10
1.1909011e-10
-7.1648108e-11
2.9152879e-10
-9.0394674e-11
2.6477341e-10
2.9855102e-10
-4.1267922e-10
3.8262438e-10
2.7779875e-10
-7.6018333e-10
1.7942616e-10
3.9661876e-10
1.7199655e-09
-1.5811364e-09
6.0320677e-10
-7.6566497e-10
3.7840595e-10
1.8692913e-09
8.4015168e-10
-2.7064168e-10
1.0456714e-09
8.8265983e-10
5.1568867e-13
-2.3121488e-10
8.6744637e-10
2.7011482e-10
-2.2851745e-10
8.6706904e-10
-3.8285257e-10
1.0518817e-09
8.8179288e-10
-1.7320754e-09
1.8802925e-09
8.3971635e-10
-1.6035493e-09
6.0456083e-10
-7.6347219e-10
1.2492356e-09
-1.7605422e-09
9.5981187e-10
-8.8296255e-10
-1.0554364e-10
3.4352407e-09
1.2248847e-09
-5.0368749e-10
1.631009e-09
1.2610293e-09
7.0969554e-13
-5.7861498e-10
1.2446331e-09
5.0329262e-10
-5.736578e-10
1.2438773e-09
1.0033701e-10
1.6431669e-09
1.2590436e-09
-1.2613568e-09
3.4541307e-09
1.2230733e-09
-1.7936344e-09
9.6028276e-10
-8.8429379e-10
4.1743869e-10
-1.3817753e-09
1.2624301e-09
-5.6188396e-10
-5.5530529e-10
4.6600414e-09
1.5115075e-09
-6.2435445e-10
1.9175178e-09
1.539753e-09
7.6251522e-13
-1.0234043e-09
1.5281474e-09
6.2405014e-10
-1.0160189e-09
1.5270247e-09
5.5045487e-10
1.9357925e-09
1.5366012e-09
-4.2689898e-10
4.6851166e-09
1.5081176e-09
-1.4198628e-09
1.2614769e-09
-5.6568633e-10
-4.170959e-10
-5.62262e-10
1.5201054e-09
-1.3668165e-10
-9.0908504e-10
5.4227058e-09
1.7566136e-09
-6.28718e-10
1.8618945e-09
1.7939104e-09
4.3556337e-13
-1.4708814e-09
1.7927985e-09
6.2814209e-10
-1.4613463e-09
1.7914343e-09
9.0504898e-10
1.8855088e-09
1.7899488e-09
4.1146803e-10
5.451407e-09
1.7520414e-09
-5.9747456e-10
1.5177825e-09
-1.4402524e-10
-1.2019213e-09
5.4052977e-10
1.7348652e-09
3.7981324e-10
-1.174828e-09
5.6646887e-09
1.9673353e-09
-5.5475481e-10
1.4538697e-09
2.0249694e-09
-2.950162e-13
-1.8605117e-09
2.0367328e-09
5.5351259e-10
-1.8495465e-09
2.0352155e-09
1.1721314e-09
1.4810192e-09
2.0204736e-09
1.1993467e-09
5.6956484e-09
1.9618493e-09
5.1450297e-10
1.7311879e-09
3.6969195e-10
-1.730838e-09
1.6936034e-09
1.9049074e-09
8.5792862e-10
-1.2111488e-09
5.3949858e-09
2.1533296e-09
-3.7321205e-10
7.993411e-10
2.2538149e-09
-1.8625863e-12
-2.0986264e-09
2.2891195e-09
3.6980662e-10
-2.0871888e-09
2.2875964e-09
1.2084123e-09
8.279482e-10
2.2492097e-09
1.7294171e-09
5.4271811e-09
2.1473028e-09
1.6801485e-09
1.8999211e-09
8.4595735e-10
-1.9882554e-09
2.0417988e-09
1.1320012e-09
2.8183979e-09
-8.7632912e-10
2.3184141e-09
4.5027401e-09
1.1154981e-10
2.4478878e-09
-4.3692799e-11
-3.4821083e-12
2.4975745e-09
-1.8906338e-09
-1.1693507e-10
2.4960511e-09
-1.879975e-09
8.7451077e-10
2.4432369e-09
-1.6529034e-11
1.9874306e-09
2.3120125e-09
4.5365988e-09
2.0356963e-09
1.1195976e-09
2.8188556e-09
4.359201e-10
-8.4367752e-10
1.5944922e-10
4.2698943e-10
8.1439773e-11
3.8000157e-10
2.523222e-10
-1.3911927e-10
2.4033909e-10
2.7904142e-10
3.4738896e-13
-1.2619405e-10
2.7836964e-10
1.389869e-10
-1.2523583e-10
2.7812509e-10
-8.2924641e-11
2.4197983e-10
2.7848273e-10
-4.3965963e-10
3.8256084e-10
2.5197289e-10
-8.5006845e-10
1.6013127e-10
4.297037e-10
1.852197e-09
-1.8011881e-09
5.383038e-10
-8.2978348e-10
3.7746322e-10
1.9310174e-09
7.638696e-10
-3.1808411e-10
9.9435249e-10
8.2419375e-10
3.9383451e-13
-4.0376604e-10
8.265404e-10
3.172745e-10
-4.0088011e-10
8.2583265e-10
-3.822185e-10
1.0006761e-09
8.2258959e-10
-1.8643184e-09
1.9416434e-09
7.6273368e-10
-1.8235734e-09
5.3961464e-10
-8.2586736e-10
1.3283157e-09
-2.0693732e-09
8.561391e-10
-9.5645789e-10
-1.6323492e-10
3.5349232e-09
1.1125295e-09
-5.8102569e-10
1.4946524e-09
1.1785201e-09
3.4788516e-13
-9.289295e-10
1.188423e-09
5.7987626e-10
-9.2369431e-10
1.1871631e-09
1.5712675e-10
1.5071244e-09
1.1753448e-09
-1.3416469e-09
3.5540277e-09
1.1094627e-09
-2.105104e-09
8.5624498e-10
-9.5607848e-10
4.11169e-10
-1.7400367e-09
1.1295726e-09
-6.0764792e-10
-6.5913481e-10
4.7398611e-09
1.3768734e-09
-7.1665045e-10
1.6459134e-09
1.4460077e-09
1.2581359e-13
-1.5851626e-09
1.4676042e-09
7.150327e-10
-1.5774137e-09
1.4658371e-09
6.5269035e-10
1.6647942e-09
1.4412738e-09
-4.2293917e-10
4.7661097e-09
1.3716651e-09
-1.7837631e-09
1.1277798e-09
-6.1058301e-10
-4.9897056e-10
-9.4214376e-10
1.3672612e-09
-1.4607818e-10
-1.0455905e-09
5.4323939e-09
1.6107008e-09
-7.2081569e-10
1.4167369e-09
1.698312e-09
-4.0105613e-13
-2.248231e-09
1.7354522e-09
7.184993e-10
-2.2382291e-09
1.7333493e-09
1.0394517e-09
1.4412924e-09
1.6924982e-09
4.9065627e-10
5.4630484e-09
1.6038981e-09
-9.8538498e-10
1.3636712e-09
-1.5361056e-10
-1.3538083e-09
1.622809e-10
1.5709001e-09
4.1334884e-10
-1.3293609e-09
5.5551589e-09
1.8201228e-09
-6.3569133e-10
8.1246851e-10
1.9355682e-09
-1.2507995e-12
-2.835105e-09
1.9891662e-09
6.323876e-10
-2.8235075e-09
1.9868556e-09
1.3243124e-09
8.407961e-10
1.929045e-09
1.3485816e-09
5.5885097e-09
1.8121189e-09
1.2690441e-10
1.5655781e-09
4.0190203e-10
-1.9224693e-09
1.3217973e-09
1.7387755e-09
9.2908487e-10
-1.3575513e-09
5.130242e-09
2.0133286e-09
-4.2948443e-10
-3.7970985e-11
2.1761875e-09
-2.8295945e-12
-3.2279843e-09
2.2553439e-09
4.2389726e-10
-3.2156625e-09
2.2530245e-09
1.352206e-09
-7.8217846e-12
2.1695189e-09
1.91851e-09
5.1648414e-09
2.0046671e-09
1.2987627e-09
1.7318223e-09
9.1475051e-10
-2.1916211e-09
1.8828597e-09
1.2181099e-09
2.4542475e-09
-9.7067681e-10
2.1944026e-09
4.0333092e-09
1.1132991e-10
2.387929e-09
-1.060019e-09
-4.5282528e-12
2.483898e-09
-3.0984497e-09
-1.1934951e-10
2.4815876e-09
-3.0863778e-09
9.6577526e-10
2.3812431e-09
-1.0309527e-09
2.1882814e-09
2.1852951e-09
4.0690526e-09
1.8745581e-09
1.2027389e-09
2.4454434e-09
4.6357911e-10
-9.1098194e-10
1.4805584e-10
4.5879619e-10
7.6634867e-11
4.0052228e-10
2.3874416e-10
-1.5707918e-10
2.4073536e-10
2.7202009e-10
3.2215916e-13
-1.5705148e-10
2.7801977e-10
1.5686254e-10
-1.5608541e-10
2.7767011e-10
-7.7875772e-11
2.4197492e-10
2.7124611e-10
-4.6669351e-10
4.0261184e-10
2.3817878e-10
-9.1597064e-10
1.4875286e-10
4.6065553e-10
1.982826e-09
-1.9668617e-09
5.012649e-10
-8.8990741e-10
3.8158903e-10
2.0420272e-09
7.2360165e-10
-3.6041021e-10
1.0039811e-09
8.0294725e-10
2.7847471e-13
-5.1411352e-10
8.2291375e-10
3.5938604e-10
-5.112937e-10
8.2193336e-10
-3.8648181e-10
1.0096633e-09
8.0076907e-10
-1.9947987e-09
2.0517681e-09
7.2189438e-10
-1.9897275e-09
5.0274718e-10
-8.8417442e-10
1.4099393e-09
-2.2970291e-09
8.0073213e-10
-1.024365e-09
-2.1210027e-10
3.7168413e-09
1.0597551e-09
-6.5118417e-10
1.4646947e-09
1.1568904e-09
-5.0830783e-14
-1.1694922e-09
1.1926683e-09
6.4926959e-10
-1.1644542e-09
1.1910033e-09
2.0514109e-10
1.4763271e-09
1.1528095e-09
-1.4245188e-09
3.7352032e-09
1.0556875e-09
-2.3367196e-09
8.0090307e-10
-1.0221849e-09
4.1180977e-10
-1.9924307e-09
1.0611794e-09
-6.4801498e-10
-7.5263529e-10
4.9386967e-09
1.319463e-09
-8.0105189e-10
1.5291597e-09
1.4299593e-09
-5.9171859e-13
-1.9857549e-09
1.4834068e-09
7.9800363e-10
-1.9783468e-09
1.4811344e-09
7.4446053e-10
1.5470999e-09
1.4240441e-09
-4.2619322e-10
4.9646625e-09
1.3128595e-09
-2.0441596e-09
1.0591121e-09
-6.5008548e-10
-5.7101161e-10
-1.1947941e-09
1.2902837e-09
-1.4964764e-10
-1.1710477e-09
5.5971631e-09
1.5522705e-09
-8.0560367e-10
1.1736905e-09
1.6883372e-09
-1.2939629e-12
-2.8157388e-09
1.7611263e-09
8.0138413e-10
-2.8061235e-09
1.7584479e-09
1.1624852e-09
1.197357e-09
1.68114e-09
5.5949346e-10
5.627798e-09
1.5437543e-09
-1.2494945e-09
1.2860193e-09
-1.5751979e-10
-1.4940949e-09
-7.2085722e-11
1.489384e-09
4.529026e-10
-1.4731396e-09
5.6325202e-09
1.7638104e-09
-7.1076858e-10
4.1492733e-10
1.9319603e-09
-2.2396092e-12
-3.5583382e-09
2.0232367e-09
7.0525122e-10
-3.5470675e-09
2.0203087e-09
1.4653349e-09
4.4239463e-10
1.9239237e-09
1.4855999e-09
5.6657899e-09
1.7538619e-09
-1.2119647e-10
1.4830082e-09
4.3987183e-10
-2.1027958e-09
1.1072955e-09
1.6567512e-09
1.0054388e-09
-1.4943345e-09
5.0759707e-09
1.9614168e-09
-4.8186665e-10
-5.987731e-10
2.17742e-09
-3.7318828e-12
-4.0751786e-09
2.2940496e-09
4.7410371e-10
-4.0629796e-09
2.291101e-09
1.4860229e-09
-5.6923402e-10
2.1692283e-09
2.095611e-09
5.1101892e-09
1.9506797e-09
1.0693189e-09
1.6485177e-09
9.8840016e-10
-2.3837764e-09
1.8033704e-09
1.3104441e-09
2.260117e-09
-1.0620294e-09
2.148768e-09
3.7998584e-09
1.1285449e-10
2.3954709e-09
-1.7811989e-09
-5.4454918e-12
2.5276439e-09
-4.0006246e-09
-1.2338836e-10
2.5247043e-09
-3.9881534e-09
1.0535026e-09
2.3871506e-09
-1.7520326e-09
2.3771356e-09
2.137499e-09
3.8343524e-09
1.7935293e-09
1.2916612e-09
2.235822e-09
4.9113444e-10
-9.7187941e-10
1.4197532e-10
4.8682548e-10
7.5077088e-11
4.2319573e-10
2.3160577e-10
-1.7240349e-10
2.4765985e-10
2.7184081e-10
2.4456057e-13
-1.7939681e-10
2.8476852e-10
1.7205798e-10
-1.78478e-10
2.8433468e-10
-7.6343182e-11
2.4877495e-10
2.7087231e-10
-4.9375208e-10
4.247941e-10
2.3079356e-10
-9.7516533e-10
1.4223395e-10
4.8793214e-10
2.1075502e-09
-2.107548e-09
4.7390154e-10
-9.4451825e-10
3.9111872e-10
2.1661589e-09
6.9706991e-10
-3.9699928e-10
1.0416169e-09
7.9710821e-10
3.4863609e-14
-5.8897676e-10
8.3545954e-10
3.9563125e-10
-5.8642057e-10
8.3427953e-10
-3.9609351e-10
1.0468098e-09
7.9445892e-10
-2.1195067e-09
2.1752452e-09
6.948565e-10
-2.1306326e-09
4.7560407e-10
-9.3689641e-10
1.4914092e-09
-2.4741721e-09
7.6103467e-10
-1.0850876e-09
-2.4959325e-10
3.9367708e-09
1.0301455e-09
-7.1313472e-10
1.501106e-09
1.1609428e-09
-6.0203907e-13
-1.3322142e-09
1.2233731e-09
7.1024384e-10
-1.3277158e-09
1.2214526e-09
2.4250174e-10
1.5111023e-09
1.1562591e-09
-1.5073848e-09
3.9553853e-09
1.0254339e-09
-2.5175965e-09
7.6162229e-10
-1.0811401e-09
4.1892627e-10
-2.1646707e-09
1.0153211e-09
-6.8256943e-10
-8.3365557e-10
5.2142498e-09
1.2945659e-09
-8.7679234e-10
1.5253314e-09
1.4488706e-09
-1.4423003e-12
-2.2584804e-09
1.5343229e-09
8.7205642e-10
-2.2518456e-09
1.5317654e-09
8.2362409e-10
1.5412986e-09
1.44228e-09
-4.3601496e-10
5.2406343e-09
1.2872495e-09
-2.2242779e-09
1.0136493e-09
-6.8387079e-10
-6.3294545e-10
-1.3351243e-09
1.2422051e-09
-1.4852237e-10
-1.2839003e-09
5.8841492e-09
1.533326e-09
-8.8287392e-10
1.0936489e-09
1.7189933e-09
-2.3090215e-12
-3.20446e-09
1.8265411e-09
8.7647494e-10
-3.1957308e-09
1.823549e-09
1.2727675e-09
1.1150736e-09
1.7110724e-09
6.180633e-10
5.9150874e-09
1.5240054e-09
-1.4013978e-09
1.2380636e-09
-1.5686112e-10
-1.622204e-09
-1.6158791e-10
1.4419153e-09
4.9613632e-10
-1.6058419e-09
5.8803001e-09
1.7512973e-09
-7.8043008e-10
2.2899702e-10
1.9712004e-09
-3.3554618e-12
-4.0561424e-09
2.0978444e-09
7.7247158e-10
-4.0458271e-09
2.094578e-09
1.5950983e-09
2.5397842e-10
1.9623922e-09
1.6102862e-09
5.9132881e-09
1.7404733e-09
-2.2482632e-10
1.435436e-09
4.8128687e-10
-2.2726466e-09
1.0699079e-09
1.6125831e-09
1.0853189e-09
-1.6242422e-09
5.238592e-09
1.9547205e-09
-5.3177581e-10
-9.061321e-10
2.2200827e-09
-4.7070513e-12
-4.6589018e-09
2.3697403e-09
5.2171094e-10
-4.647566e-09
2.3664218e-09
1.6126344e-09
-8.7865952e-10
2.2109428e-09
2.2622375e-09
5.2713721e-09
1.9429925e-09
1.0169223e-09
1.604005e-09
1.0650015e-09
-2.569129e-09
1.76408e-09
1.408049e-09
2.2702783e-09
-1.1539226e-09
2.1475728e-09
3.8245808e-09
1.1065183e-10
2.4406691e-09
-2.2159047e-09
-6.3473401e-12
2.6030075e-09
-4.6172663e-09
-1.238731e-10
2.5996849e-09
-4.6050208e-09
1.1415062e-09
2.431393e-09
-2.1882813e-09
2.5590363e-09
2.1352155e-09
3.8561256e-09
1.7536915e-09
1.3852733e-09
2.2305231e-09
5.1492877e-10
-1.0207584e-09
1.3821774e-10
5.0958718e-10
7.4567236e-11
4.4586938e-10
2.2609792e-10
-1.8571925e-10
2.5741087e-10
2.7471642e-10
1.6753746e-13
-1.9594605e-10
2.9482778e-10
1.8525062e-10
-1.9511806e-10
2.9436965e-10
-7.5745284e-11
2.5822391e-10
2.7364429e-10
-5.1883004e-10
4.4845555e-10
2.2542275e-10
-1.0253577e-09
1.3885792e-10
5.0990369e-10
2.2159351e-09
-2.2115234e-09
4.5221875e-10
-1.0034872e-09
4.0164312e-10
2.2813888e-09
6.758424e-10
-4.2841221e-10
1.0848723e-09
7.9970211e-10
-1.8733084e-13
-6.4559986e-10
8.5688845e-10
4.2681378e-10
-6.4347558e-10
8.5563593e-10
-4.0637783e-10
1.0891716e-09
7.9670281e-10
-2.2288749e-09
2.2923677e-09
6.734414e-10
-2.2472837e-09
4.535019e-10
-9.8484675e-10
1.5633031e-09
-2.5957475e-09
7.3119882e-10
-1.1492431e-09
-2.7918477e-10
4.1422783e-09
1.0117439e-09
-7.6710677e-10
1.553221e-09
1.180516e-09
-1.1133619e-12
-1.4581854e-09
1.2699652e-09
7.6340615e-10
-1.454524e-09
1.2679815e-09
2.7176972e-10
1.5615345e-09
1.1755327e-09
-1.5814205e-09
4.1640509e-09
1.0069409e-09
-2.6608327e-09
7.3066516e-10
-1.1369144e-09
4.265131e-10
-2.2717422e-09
9.8342824e-10
-7.1862558e-10
-9.0341133e-10
5.4799635e-09
1.2868051e-09
-9.4340445e-10
1.5527587e-09
1.489326e-09
-2.220161e-12
-2.4719818e-09
1.6069349e-09
9.3719024e-10
-2.4665148e-09
1.6043458e-09
8.9232164e-10
1.5660857e-09
1.4825974e-09
-4.4583174e-10
5.5098015e-09
1.2796524e-09
-2.3573343e-09
9.8052252e-10
-7.1620337e-10
-6.861117e-10
-1.407236e-09
1.2115363e-09
-1.4772573e-10
-1.3828851e-09
6.1739034e-09
1.5361595e-09
-9.5131072e-10
1.0653566e-09
1.774821e-09
-3.2792944e-12
-3.5102088e-09
1.9167367e-09
9.4297129e-10
-3.5029376e-09
1.9137212e-09
1.3698232e-09
1.0834805e-09
1.7668257e-09
6.6881426e-10
6.2076876e-09
1.5271282e-09
-1.5012593e-09
1.2064912e-09
-1.5568843e-10
-1.7344473e-09
-1.8307701e-10
1.4147816e-09
5.3742201e-10
-1.7238096e-09
6.150963e-09
1.7636e-09
-8.4262668e-10
1.1828734e-10
2.0370867e-09
-4.4053969e-12
-4.4484206e-09
2.1978349e-09
8.3242088e-10
-4.4397252e-09
2.1945394e-09
1.7104733e-09
1.3959392e-10
2.0282263e-09
1.7201351e-09
6.1853663e-09
1.7531329e-09
-2.7424258e-10
1.4077449e-09
5.2080953e-10
-2.4235913e-09
1.1005327e-09
1.5909625e-09
1.1616022e-09
-1.740976e-09
5.4488882e-09
1.9741799e-09
-5.7697288e-10
-1.1139359e-09
2.2883028e-09
-5.6091143e-12
-5.1186539e-09
2.4686098e-09
5.646784e-10
-5.1088031e-09
2.4652121e-09
1.72646e-09
-1.0903028e-09
2.2790579e-09
2.4107971e-09
5.4813044e-09
1.9627172e-09
1.0209998e-09
1.5818921e-09
1.1376676e-09
-2.7358706e-09
1.7480286e-09
1.5029836e-09
2.3494711e-09
-1.2384041e-09
2.1718471e-09
3.9271473e-09
1.0682426e-10
2.508541e-09
-2.5270361e-09
-7.165783e-12
2.6977601e-09
-5.0994165e-09
-1.2253564e-10
2.6943337e-09
-5.0880821e-09
1.2225361e-09
2.4991114e-09
-2.5030929e-09
2.723072e-09
2.1596747e-09
3.9563093e-09
1.7373753e-09
1.4754936e-09
2.2848943e-09
5.341583e-10
-1.0698334e-09
1.3287922e-10
5.4101356e-10
7.5890861e-11
4.6335514e-10
2.210102e-10
-1.9664769e-10
2.6294672e-10
2.8430825e-10
7.0198324e-14
-2.1048148e-10
3.0859136e-10
1.9604748e-10
-2.0970938e-10
3.0810174e-10
-7.6901254e-11
2.6362619e-10
2.8296683e-10
-5.3590589e-10
4.6410624e-10
2.2032114e-10
-1.0682823e-09
1.3407299e-10
5.3716135e-10
2.3043417e-09
-2.2713642e-09
4.3709327e-10
-1.0876854e-09
4.1505732e-10
2.3718908e-09
6.5659115e-10
-4.5425553e-10
1.1167663e-09
8.1519534e-10
-4.6636636e-13
-6.9285713e-10
8.8547493e-10
4.5232621e-10
-6.9100616e-10
8.8414012e-10
-4.1945274e-10
1.1202288e-09
8.1187912e-10
-2.3165788e-09
2.3812976e-09
6.5337616e-10
-2.305208e-09
4.3580964e-10
-1.061961e-09
1.6255315e-09
-2.6413239e-09
7.1350708e-10
-1.23788e-09
-2.9954481e-10
4.3103627e-09
9.9834824e-10
-8.120262e-10
1.5946151e-09
1.2151486e-09
-1.6023808e-12
-1.5611355e-09
1.3278197e-09
8.0757611e-10
-1.5579956e-09
1.3257925e-09
2.917676e-10
1.60157e-09
1.21e-09
-1.6428736e-09
4.3299509e-09
9.9292876e-10
-2.7112121e-09
7.0962554e-10
-1.2158298e-09
4.3893899e-10
-2.2923915e-09
9.6552549e-10
-7.6996871e-10
-9.5753103e-10
5.7061558e-09
1.2874819e-09
-9.9927982e-10
1.5792827e-09
1.5464072e-09
-2.9411416e-12
-2.6446453e-09
1.6941061e-09
9.9185082e-10
-2.6399801e-09
1.6915383e-09
9.454786e-10
1.590791e-09
1.5397486e-09
-4.5835952e-10
5.7333918e-09
1.2800496e-09
-2.3879983e-09
9.5977255e-10
-7.6082341e-10
-7.2381668e-10
-1.3943471e-09
1.1952755e-09
-1.5796679e-10
-1.4625919e-09
6.4313142e-09
1.5497763e-09
-1.0091212e-09
1.0529816e-09
1.8476514e-09
-4.121933e-12
-3.7558982e-09
2.0229904e-09
9.9925432e-10
-3.7496758e-09
2.0200407e-09
1.4480685e-09
1.0688874e-09
1.8399151e-09
7.0560868e-10
6.4616835e-09
1.5412963e-09
-1.502094e-09
1.1883752e-09
-1.6217962e-10
-1.821502e-09
-1.2784158e-10
1.4021843e-09
5.6759376e-10
-1.820832e-09
6.4057817e-09
1.7884625e-09
-8.9557042e-10
4.5181331e-11
2.1196254e-09
-5.283532e-12
-4.7621612e-09
2.313811e-09
8.8366949e-10
-4.7546967e-09
2.3106073e-09
1.8057386e-09
6.3903601e-11
2.1111409e-09
1.8059803e-09
6.4356359e-09
1.7789389e-09
-2.3443502e-10
1.3941691e-09
5.5189714e-10
-2.5450811e-09
1.1995306e-09
1.5838083e-09
1.2248632e-09
-1.8383971e-09
5.6662006e-09
2.007077e-09
-6.1588935e-10
-1.2607984e-09
2.3717748e-09
-6.3755744e-12
-5.4846712e-09
2.581606e-09
6.0196245e-10
-5.4760913e-09
2.5782687e-09
1.8217808e-09
-1.2396784e-09
2.3628216e-09
2.5306297e-09
5.6928982e-09
1.9966059e-09
1.1033095e-09
1.5745747e-09
1.2002026e-09
-2.8729221e-09
1.7464717e-09
1.5853229e-09
2.4886867e-09
-1.3102826e-09
2.2095511e-09
4.0658572e-09
1.0212459e-10
2.5897143e-09
-2.754379e-09
-7.823514e-12
2.8040921e-09
-5.4810551e-09
-1.1956921e-10
2.8007152e-09
-5.4707271e-09
1.2919893e-09
2.5805588e-09
-2.7326843e-09
2.8584422e-09
2.19833e-09
4.08779e-09
1.7361606e-09
1.5558216e-09
2.4071449e-09
5.5437025e-10
-1.1200277e-09
1.3389572e-10
5.6464098e-10
7.0516182e-11
4.8468071e-10
2.2018355e-10
-2.1155023e-10
2.4867295e-10
3.177017e-10
-8.5587596e-14
-2.2628245e-10
3.2340916e-10
2.1073357e-10
-2.256114e-10
3.2289398e-10
-7.6491919e-11
2.534757e-10
3.167166e-10
-5.5102552e-10
4.7760324e-10
2.172515e-10
-1.107429e-09
1.3144625e-10
5.5903025e-10
2.3691365e-09
-2.3666194e-09
4.2792631e-10
-1.1133779e-09
4.1647993e-10
2.4513977e-09
6.4253071e-10
-4.8620527e-10
1.1163864e-09
8.5016711e-10
-8.8409085e-13
-7.4282828e-10
9.1669957e-10
4.8312209e-10
-7.4079152e-10
9.1531404e-10
-4.1843619e-10
1.1198099e-09
8.4710321e-10
-2.3865914e-09
2.462118e-09
6.3701657e-10
-2.3767881e-09
4.2343819e-10
-1.1048609e-09
1.6690178e-09
-2.73581e-09
7.0012133e-10
-1.2864415e-09
-3.2415084e-10
4.45109e-09
9.9182457e-10
-8.5890069e-10
1.6002357e-09
1.2660492e-09
-2.254392e-12
-1.6621769e-09
1.390522e-09
8.5328712e-10
-1.6589874e-09
1.3884468e-09
3.1483598e-10
1.6067771e-09
1.2614839e-09
-1.688647e-09
4.4730492e-09
9.8548052e-10
-2.7794613e-09
6.947003e-10
-1.2710486e-09
4.4325367e-10
-2.347619e-09
9.5081181e-10
-8.1673098e-10
-1.0082369e-09
5.8949129e-09
1.2951496e-09
-1.052988e-09
1.5746199e-09
1.6167741e-09
-3.7895813e-12
-2.8053392e-09
1.7880699e-09
1.0438938e-09
-2.8006233e-09
1.7854908e-09
9.9338687e-10
1.5860209e-09
1.6110117e-09
-4.6547797e-10
5.9221221e-09
1.2898415e-09
-2.4261568e-09
9.460347e-10
-8.0504456e-10
-7.564659e-10
-1.4081769e-09
1.1836018e-09
-1.7130253e-10
-1.5322466e-09
6.6490517e-09
1.5714182e-09
-1.0623749e-09
1.0209936e-09
1.9314059e-09
-5.049677e-12
-3.976525e-09
2.1368511e-09
1.050657e-09
-3.9702159e-09
2.1339267e-09
1.5150408e-09
1.0369435e-09
1.9246087e-09
7.356714e-10
6.6774727e-09
1.5653151e-09
-1.5062317e-09
1.1785341e-09
-1.7441268e-10
-1.8928198e-09
-9.6029181e-11
1.3953655e-09
5.8749088e-10
-1.9027992e-09
6.6257223e-09
1.8217713e-09
-9.4317492e-10
-3.0260941e-11
2.2112557e-09
-6.2054247e-12
-5.0369109e-09
2.4372274e-09
9.2951254e-10
-5.029407e-09
2.4340803e-09
1.8854144e-09
-1.1420533e-11
2.203603e-09
1.8748094e-09
6.6523736e-09
1.8146429e-09
-1.9880816e-10
1.3896477e-09
5.7190725e-10
-2.643394e-09
1.276068e-09
1.5832558e-09
1.2718493e-09
-1.9199668e-09
5.8609954e-09
2.0483766e-09
-6.5076688e-10
-1.3902784e-09
2.4625924e-09
-7.2198529e-12
-5.7995305e-09
2.7006786e-09
6.3525943e-10
-5.7910208e-09
2.6974032e-09
1.9010975e-09
-1.3687772e-09
2.4543402e-09
2.626351e-09
5.88357e-09
2.0401561e-09
1.17891e-09
1.5766955e-09
1.246512e-09
-2.9838673e-09
1.751979e-09
1.6486305e-09
2.6057975e-09
-1.370924e-09
2.2549948e-09
4.2026084e-09
9.532819e-11
2.6765418e-09
-2.9433581e-09
-8.5341279e-12
2.9147998e-09
-5.8063759e-09
-1.1416466e-10
2.9115023e-09
-5.7961774e-09
1.3505934e-09
2.6679919e-09
-2.9209683e-09
2.9670617e-09
2.2457646e-09
4.2196671e-09
1.7444498e-09
1.617818e-09
2.5198645e-09
5.6168759e-10
-1.1325779e-09
1.344315e-10
5.7035451e-10
7.4849082e-11
4.871806e-10
2.1984145e-10
-2.3978469e-10
2.839525e-10
3.4838296e-10
-3.8529895e-13
-2.5054982e-10
3.3455958e-10
2.3793685e-10
-2.4956254e-10
3.3413435e-10
-7.6662212e-11
2.8323051e-10
3.4808515e-10
-5.6322018e-10
4.8648874e-10
2.1732072e-10
-1.1364102e-09
1.3343891e-10
5.7119731e-10
2.4216074e-09
-2.4015046e-09
4.14746e-10
-1.1395004e-09
3.5789625e-10
2.5597566e-09
6.3366575e-10
-5.3717875e-10
1.1439428e-09
8.8525179e-10
-1.6751445e-12
-8.0872634e-10
9.3937247e-10
5.3199081e-10
-8.0599689e-10
9.3808242e-10
-3.6689276e-10
1.1454657e-09
8.8375162e-10
-2.432427e-09
2.5609297e-09
6.281099e-10
-2.4510882e-09
4.1412693e-10
-1.1084378e-09
1.6881309e-09
-2.7585249e-09
6.817066e-10
-1.3126959e-09
-3.7832659e-10
4.6269231e-09
9.9111558e-10
-9.2522406e-10
1.6361263e-09
1.3207631e-09
-3.3546545e-12
-1.7846893e-09
1.4446156e-09
9.1614256e-10
-1.7796556e-09
1.4426083e-09
3.6361072e-10