/*--------------------------------*- C++ -*----------------------------------*\
  =========                 |
  \\      /  F ield         | OpenFOAM: The Open Source CFD Toolbox
   \\    /   O peration     | Website:  https://openfoam.org
    \\  /    A nd           | Version:  13
     \\/     M anipulation  |
\*---------------------------------------------------------------------------*/
FoamFile
{
    format      ascii;
    class       surfaceScalarField;
    location    "0.11";
    object      phi;
}
// * * * * * * * * * * * * * * * * * * * * * * * * * * * * * * * * * * * * * //

dimensions      [0 3 -1 0 0 0 0];

internalField   nonuniform List<scalar> 
150720
(
1.5130341e-11
2.678653e-09
9.0036122e-10
-5.6342913e-18
-1.7006638e-11
2.6392419e-09
9.8703965e-10
-1.8284099e-11
2.6437337e-09
9.5168835e-10
5.0895435e-15
2.6450634e-09
9.3079202e-10
1.8293874e-11
2.6450629e-09
9.3079288e-10
1.70146e-11
2.6437327e-09
9.5169112e-10
-1.5125995e-11
2.6392408e-09
9.8704433e-10
2.6786517e-09
9.0036639e-10
4.3207668e-16
-4.3395082e-11
4.1655908e-09
2.0165611e-09
-6.2174235e-16
-1.0098496e-10
4.0025605e-09
2.1543745e-09
-6.8865256e-11
3.9922564e-09
2.0794608e-09
1.1364573e-14
3.9982343e-09
2.0380557e-09
6.888686e-11
3.9982331e-09
2.0380575e-09
1.0100284e-10
3.9922533e-09
2.0794667e-09
4.3406358e-11
4.0025559e-09
2.1543847e-09
4.1655867e-09
2.0165733e-09
1.3756218e-15
-7.8387048e-11
4.8647193e-09
2.705322e-09
-1.4466535e-15
-1.4514085e-10
4.5669837e-09
2.8283927e-09
-9.4768131e-11
4.5359638e-09
2.7319818e-09
1.5179e-14
4.5474356e-09
2.6820775e-09
9.4797061e-11
4.5474335e-09
2.6820797e-09
1.4516524e-10
4.5359582e-09
2.731989e-09
7.8402731e-11
4.5669751e-09
2.8284053e-09
4.8647108e-09
2.7053382e-09
2.4362439e-15
-9.4653517e-11
5.0376858e-09
3.11371e-09
-2.4011189e-15
-1.6011044e-10
4.6312784e-09
3.1931828e-09
-1.0351443e-10
4.5842614e-09
3.0871271e-09
1.7484014e-14
4.6003051e-09
3.0356192e-09
1.0354787e-10
4.6003023e-09
3.0356215e-09
1.6013912e-10
4.5842533e-09
3.0871343e-09
9.4672724e-11
4.6312662e-09
3.1931959e-09
5.0376725e-09
3.113728e-09
3.6312711e-15
-9.9502915e-11
4.8748834e-09
3.3202881e-09
-3.4124406e-15
-1.5884815e-10
4.3996446e-09
3.3489584e-09
-1.0289606e-10
4.3446819e-09
3.2416068e-09
1.8855739e-14
4.3629341e-09
3.1924354e-09
1.0293224e-10
4.3629307e-09
3.1924376e-09
1.5887966e-10
4.3446717e-09
3.2416135e-09
9.9524954e-11
4.3996295e-09
3.3489707e-09
4.8748657e-09
3.3203061e-09
4.9105567e-15
-9.5758627e-11
4.5134397e-09
3.3811448e-09
-4.4534251e-15
-1.4819256e-10
4.0122231e-09
3.3637935e-09
-9.6966911e-11
3.9565986e-09
3.2607956e-09
1.965737e-14
3.9739028e-09
3.2159828e-09
9.700474e-11
3.9738989e-09
3.2159847e-09
1.4822593e-10
3.956587e-09
3.2608015e-09
9.5782918e-11
4.0122061e-09
3.3638044e-09
4.5134185e-09
3.3811619e-09
6.2946298e-15
-8.5477374e-11
4.0502691e-09
3.3385503e-09
-5.5128602e-15
-1.3249969e-10
3.5636125e-09
3.2855297e-09
-8.8099145e-11
3.5116062e-09
3.1904886e-09
2.0110958e-14
3.5247898e-09
3.1508905e-09
8.813799e-11
3.5247856e-09
3.1508922e-09
1.3253444e-10
3.5115938e-09
3.1904935e-09
8.5503688e-11
3.5635947e-09
3.2855389e-09
4.0502455e-09
3.3385657e-09
7.7290974e-15
-6.8734264e-11
3.2355605e-09
-6.4719711e-15
3.5393047e-09
-1.1590345e-10
3.1565436e-09
3.1100935e-09
-7.8460329e-11
3.0705692e-09
3.0594494e-09
2.0318423e-14
3.0361241e-09
3.0660404e-09
7.8499831e-11
3.0361255e-09
3.066036e-09
1.1593943e-10
3.0705733e-09
3.0594364e-09
6.8762159e-11
3.1565512e-09
3.1100761e-09
3.235574e-09
9.0345146e-15
3.53928e-09
4.425296e-11
4.3804979e-10
4.1805854e-10
-7.0255151e-17
3.7287138e-11
4.5901945e-10
5.3498602e-10
1.8707335e-11
4.4046806e-10
5.298001e-10
1.0509557e-14
4.3567061e-10
5.1381823e-10
-1.8687401e-11
4.3566995e-10
5.1382084e-10
-3.7271028e-11
4.4046613e-10
5.2980861e-10
-4.4244523e-11
4.5901812e-10
5.349997e-10
4.380497e-10
4.1807166e-10
5.0239749e-16
8.9581468e-11
1.1554324e-09
1.2095986e-09
-1.5877793e-15
7.198746e-11
1.1766905e-09
1.4542975e-09
3.3759604e-11
1.1293317e-09
1.428825e-09
2.6353901e-14
1.1186769e-09
1.3887826e-09
-3.3709643e-11
1.1186749e-09
1.3887885e-09
-7.1946662e-11
1.1293253e-09
1.4288445e-09
-8.9558774e-11
1.1766847e-09
1.4543302e-09
1.1554287e-09
1.2096329e-09
2.6331271e-15
1.0834374e-10
1.8662668e-09
1.8861478e-09
-3.8965314e-15
8.1815949e-11
1.8566605e-09
2.1749505e-09
3.5880067e-11
1.7802567e-09
2.1269927e-09
3.7713552e-14
1.7652475e-09
2.0713493e-09
-3.5808384e-11
1.7652439e-09
2.0713569e-09
-8.1756449e-11
1.7802444e-09
2.1270179e-09
-1.0830869e-10
1.8566479e-09
2.1749943e-09
1.8662559e-09
1.8861969e-09
5.4198235e-15
1.1042605e-10
2.4485606e-09
2.4209968e-09
-6.6510452e-15
7.7682508e-11
2.3866968e-09
2.6958901e-09
3.1403134e-11
2.2860307e-09
2.6276324e-09
4.5639744e-14
2.2686019e-09
2.5636223e-09
-3.1316105e-11
2.2685967e-09
2.5636304e-09
-7.7609109e-11
2.2860123e-09
2.6276594e-09
-1.1038027e-10
2.3866763e-09
2.6959387e-09
2.4485402e-09
2.4210548e-09
8.5908673e-15
1.0310105e-10
2.854311e-09
2.8114464e-09
-9.6401306e-15
6.7529279e-11
2.732852e-09
3.0383748e-09
2.4548042e-11
2.6162269e-09
2.9543918e-09
5.1040627e-14
2.5979542e-09
2.88758e-09
-2.445036e-11
2.5979477e-09
2.8875879e-09
-6.7445634e-11
2.616203e-09
2.9544181e-09
-1.03046e-10
2.7328239e-09
3.0384236e-09
2.85428e-09
2.8115083e-09
1.2018471e-14
9.1215233e-11
3.0797009e-09
3.0645524e-09
-1.2710842e-14
5.5616313e-11
2.9032097e-09
3.2290348e-09
1.7467301e-11
2.7802891e-09
3.1348825e-09
5.4640737e-14
2.7621059e-09
3.0692438e-09
-1.7362288e-11
2.7620983e-09
3.0692511e-09
-5.5525117e-11
2.7802607e-09
3.1349066e-09
-9.1152115e-11
2.9031747e-09
3.2290806e-09
3.07966e-09
3.0646142e-09
1.5613219e-14
7.7575972e-11
3.1466315e-09
3.1940594e-09
-1.5771474e-14
4.3779127e-11
2.9262468e-09
3.2962893e-09
1.1058002e-11
2.8062041e-09
3.1972947e-09
5.6982578e-14
2.7885558e-09
3.1354415e-09
-1.0947887e-11
2.7885474e-09
3.1354479e-09
-4.3682333e-11
2.8061729e-09
3.1973158e-09
-7.7505853e-11
2.9262069e-09
3.2963303e-09
3.1465822e-09
3.1941183e-09
1.9342702e-14
6.3929405e-11
3.2097621e-09
-1.8617038e-14
3.1085191e-09
3.2965426e-11
3.2623624e-09
2.8513921e-09
5.6785202e-12
3.1631521e-09
2.7409081e-09
5.8417855e-14
3.1068055e-09
2.7234945e-09
-5.5639906e-12
3.1068109e-09
2.7234844e-09
-3.2864301e-11
3.16317e-09
2.7408765e-09
-6.3852801e-11
3.2623975e-09
2.8513491e-09
3.2098162e-09
2.2843866e-14
3.1084644e-09
3.6643052e-11
9.5589184e-11
2.8582633e-10
-2.123021e-17
3.780122e-11
1.2508138e-10
4.0874647e-10
2.0425913e-11
1.196259e-10
4.2754951e-10
1.609744e-14
1.1494329e-10
4.1928476e-10
-2.039534e-11
1.1494204e-10
4.1929023e-10
-3.7777032e-11
1.1962324e-10
4.2756706e-10
-3.6631084e-11
1.2508019e-10
4.0877356e-10
9.5589531e-11
2.8585064e-10
4.0222489e-16
8.4000312e-11
3.7216392e-10
8.4902552e-10
-1.9470563e-15
8.8753168e-11
4.392952e-10
1.1353308e-09
4.7754609e-11
4.1868624e-10
1.1707633e-09
4.1882742e-14
4.0337074e-10
1.1480679e-09
-4.7675228e-11
4.0336711e-10
1.1480806e-09
-8.868952e-11
4.1867753e-10
1.1708046e-09
-8.3966551e-11
4.3929018e-10
1.1353973e-09
3.7216231e-10
8.4909007e-10
3.4841754e-15
1.1496527e-10
7.6486926e-10
1.3784824e-09
-5.2064137e-15
1.2015157e-10
8.5576301e-10
1.7532964e-09
6.3898337e-11
8.1361949e-10
1.7883127e-09
6.1590497e-14
7.8513343e-10
1.7534233e-09
-6.3781396e-11
7.8512695e-10
1.7534401e-09
-1.2005617e-10
8.1360251e-10
1.7883677e-09
-1.1491135e-10
8.5575145e-10
1.7533882e-09
7.6486226e-10
1.3785774e-09
8.2008947e-15
1.3168146e-10
1.199554e-09
1.8546399e-09
-9.2974327e-15
1.3451969e-10
1.2909085e-09
2.2579064e-09
7.0618207e-11
1.2238493e-09
2.2813041e-09
7.6191914e-14
1.1824426e-09
2.2368552e-09
-7.0473139e-11
1.1824332e-09
2.2368735e-09
-1.3439936e-10
1.2238231e-09
2.2813651e-09
-1.3160923e-10
1.2908879e-09
2.2580121e-09
1.199538e-09
1.8547559e-09
1.3976408e-14
1.3747849e-10
1.6159188e-09
2.257617e-09
-1.3855365e-14
1.3638429e-10
1.685066e-09
2.6453115e-09
7.0631047e-11
1.5926047e-09
2.6513896e-09
8.6692833e-14
1.5402178e-09
2.6003492e-09
-7.0465461e-11
1.5402059e-09
2.6003675e-09
-1.3624469e-10
1.5925694e-09
2.651451e-09
-1.3738985e-10
1.6850349e-09
2.6454218e-09
1.6158907e-09
2.2577454e-09
2.0362302e-14
1.345975e-10
1.972294e-09
2.5735982e-09
-1.8585191e-14
1.2926518e-10
2.001563e-09
2.9178701e-09
6.610744e-11
1.8855199e-09
2.9051251e-09
9.4019014e-14
1.8250384e-09
2.8504366e-09
-6.5927261e-11
1.8250244e-09
2.8504538e-09
-1.2911088e-10
1.8854765e-09
2.9051831e-09
-1.3449425e-10
2.0015209e-09
2.9179779e-09
1.9722523e-09
2.5737312e-09
2.7072426e-14
1.2432073e-10
2.2466175e-09
2.7954386e-09
-2.3295496e-14
1.1584234e-10
2.2226058e-09
3.083725e-09
5.871892e-11
2.0867302e-09
3.0532077e-09
9.8953626e-14
2.0215884e-09
2.9975115e-09
-5.8528657e-11
2.021573e-09
2.9975269e-09
-1.1567695e-10
2.0866805e-09
3.05326e-09
-1.242047e-10
2.2225537e-09
3.0838253e-09
2.2465621e-09
2.7955699e-09
3.3967849e-14
1.0901545e-10
2.9240423e-09
-2.7700916e-14
2.4233495e-09
9.9293397e-11
3.1570498e-09
2.3376404e-09
5.024855e-11
3.1103528e-09
2.1885744e-09
1.020525e-13
3.0558775e-09
2.1226629e-09
-5.0051548e-11
3.055891e-09
2.1226466e-09
-9.9119901e-11
3.1103982e-09
2.1885206e-09
-1.0888746e-10
3.1571393e-09
2.3375795e-09
2.9241672e-09
4.0451226e-14
2.4232831e-09
1.7240003e-11
4.0948773e-11
2.2763738e-10
1.6650243e-16
2.1886229e-11
5.653307e-11
3.4756718e-10
1.3105743e-11
5.4017509e-11
3.8231248e-10
2.3254108e-14
4.9118589e-11
3.8324866e-10
-1.3061857e-11
4.9117004e-11
3.8325834e-10
-2.1852499e-11
5.4014968e-11
3.8234273e-10
-1.7224372e-11
5.6533662e-11
3.4761177e-10
4.0950918e-11
2.276752e-10
1.4560176e-16
4.791749e-11
1.5380434e-10
6.8825448e-10
-2.0204518e-15
6.022889e-11
2.0176408e-10
9.7778838e-10
3.5806778e-11
1.9273844e-10
1.0564644e-09
6.1475479e-14
1.7688181e-10
1.0560499e-09
-3.5690962e-11
1.7687714e-10
1.0560729e-09
-6.0138259e-11
1.9272954e-10
1.0565373e-09
-4.7871788e-11
2.0176406e-10
9.7790038e-10
1.5380761e-10
6.883574e-10
4.187988e-15
7.3282609e-11
3.3118798e-10
1.1278221e-09
-5.9509071e-15
9.0659217e-11
4.1391545e-10
1.5237684e-09
5.3583145e-11
3.9381157e-10
1.6243156e-09
9.1585315e-14
3.6382386e-10
1.6199729e-09
-5.3410248e-11
3.6381544e-10
1.6200036e-09
-9.0521222e-11
3.9379337e-10
1.6244148e-09
-7.3207808e-11
4.1391232e-10
1.5239266e-09
3.3118931e-10
1.1279767e-09
1.1239101e-14
9.3148529e-11
5.5889204e-10
1.5337984e-09
-1.1086927e-14
1.1259756e-10
6.6789885e-10
1.9844739e-09
6.6114516e-11
6.3191438e-10
2.0896843e-09
1.146003e-13
5.8691595e-10
2.079763e-09
-6.5897504e-11
5.8690368e-10
2.0797973e-09
-1.1242112e-10
6.3188516e-10
2.0897969e-09
-9.3046291e-11
6.678894e-10
1.9846602e-09
5.5888739e-10
1.5339911e-09
2.0410645e-14
1.0709776e-10
8.1444017e-10
1.894988e-09
-1.6933249e-14
1.2609397e-10
9.3463983e-10
2.3595743e-09
7.358473e-11
8.7896558e-10
2.4568477e-09
1.3164527e-13
8.2004449e-10
2.4406737e-09
-7.3334573e-11
8.2002869e-10
2.4407087e-09
-1.2588698e-10
8.7892481e-10
2.4569638e-09
-1.0697031e-10
9.3462099e-10
2.3597735e-09
8.1442545e-10
1.8952061e-09
3.0903553e-14
1.1488381e-10
1.07229e-09
2.2008876e-09
-2.3075941e-14
1.3162659e-10
1.186119e-09
2.6496481e-09
7.6495822e-11
1.108652e-09
2.7305694e-09
1.4384216e-13
1.0384903e-09
2.7083428e-09
-7.6221492e-11
1.0384716e-09
2.7083762e-09
-1.3139578e-10
1.1086004e-09
2.7306818e-09
-1.1473364e-10
1.1860886e-09
2.6498481e-09
1.0722619e-09
2.201119e-09
4.211737e-14
1.1634728e-10
1.3085776e-09
2.4428329e-09
-2.9228492e-14
1.3019073e-10
1.3984926e-09
2.8575079e-09
7.5618335e-11
1.2995362e-09
2.916896e-09
1.5221986e-13
1.2219922e-09
2.8894757e-09
-7.5326967e-11
1.2219714e-09
2.8895063e-09
-1.2994166e-10
1.2994752e-09
2.9169999e-09
-1.1617705e-10
1.3984501e-09
2.8576992e-09
1.3085341e-09
2.4430671e-09
5.3664465e-14
1.1194576e-10
2.6144261e-09
-3.4988239e-14
1.5062831e-09
1.2347759e-10
2.9887261e-09
1.5552845e-09
7.1978235e-11
3.0231281e-09
1.4382603e-09
1.5756115e-13
2.9918784e-09
1.357812e-09
-7.1675353e-11
2.9919056e-09
1.3577897e-09
-1.232149e-10
3.0232205e-09
1.4381925e-09
-1.1175687e-10
2.9889018e-09
1.5552295e-09
2.6146544e-09
6.4526516e-14
1.5062255e-09
1.0712127e-11
2.1295966e-11
1.956289e-10
3.9119232e-16
1.3870609e-11
3.3661465e-11
3.1074723e-10
8.4714651e-12
3.2373421e-11
3.5533821e-10
3.31429e-14
2.7678737e-11
3.6400825e-10
-8.4095748e-12
2.7676928e-11
3.6402413e-10
-1.3824362e-11
3.2371043e-11
3.5538647e-10
-1.0691855e-11
3.3663599e-11
3.1081566e-10
2.1298982e-11
1.956847e-10
-3.318465e-16
2.9191541e-11
8.6592087e-11
5.9376891e-10
-2.0846685e-15
3.8844567e-11
1.228326e-10
8.7896422e-10
2.4176352e-11
1.1729344e-10
9.8621263e-10
8.8166646e-14
1.0205032e-10
1.0057665e-09
-2.4011637e-11
1.0204479e-10
1.0058048e-09
-3.8718711e-11
1.1728447e-10
9.8633093e-10
-2.9130685e-11
1.2283703e-10
8.7913893e-10
8.659756e-11
5.9392326e-10
4.8721948e-15
4.5261925e-11
1.9069688e-10
9.7846216e-10
-6.7662059e-15
6.0376678e-11
2.5356857e-10
1.3779177e-09
3.7908561e-11
2.4053975e-10
1.5235374e-09
1.3206877e-13
2.1177615e-10
1.5480235e-09
-3.7661053e-11
2.1176593e-10
1.5480756e-09
-6.0183257e-11
2.4052049e-10
1.523701e-09
-4.5160668e-11
2.535732e-10
1.3781678e-09
1.9070192e-10
9.7869697e-10
1.4671374e-14
5.9065894e-11
3.2569442e-10
1.339748e-09
-1.3076557e-14
7.8107096e-11
4.1183801e-10
1.8071633e-09
4.9233765e-11
3.879602e-10
1.9711372e-09
1.6611117e-13
3.4484612e-10
1.9957607e-09
-4.8921296e-11
3.4483092e-10
1.9958198e-09
-7.7857803e-11
3.8792811e-10
1.9713258e-09
-5.8925626e-11
4.1183923e-10
1.8074619e-09
3.256949e-10
1.3400445e-09
2.8029171e-14
7.046272e-11
4.8176617e-10
1.6684739e-09
-2.0383602e-14
9.1779972e-11
5.8337048e-10
2.1667246e-09
5.7938273e-11
5.4555807e-10
2.3330915e-09
1.9168771e-13
4.8897059e-10
2.3542958e-09
-5.7576265e-11
4.889507e-10
2.3543568e-09
-9.1485556e-11
5.4551194e-10
2.3332892e-09
-7.0285972e-11
5.8336427e-10
2.1670489e-09
4.8175758e-10
1.6688136e-09
4.3788768e-14
7.9050788e-11
6.4715748e-10
1.9564737e-09
-2.8154947e-14
1.0112462e-10
7.5347336e-10
2.4574714e-09
6.3914931e-11
6.9942743e-10
2.6139098e-09
2.1021882e-13
6.3167359e-10
2.6293445e-09
-6.3516325e-11
6.3164971e-10
2.6294037e-09
-1.0079459e-10
6.9936746e-10
2.6141046e-09
-7.8840801e-11
7.5345625e-10
2.4578024e-09
6.4713574e-10
1.956839e-09
6.0974976e-14
8.4321155e-11
8.089253e-10
2.1967799e-09
-3.6006232e-14
1.0618139e-10
9.075474e-10
2.6815736e-09
6.7265327e-11
8.3656243e-10
2.818677e-09
2.2305273e-13
7.6109405e-10
2.8270975e-09
-6.6840689e-11
7.6106714e-10
2.8271526e-09
-1.0582384e-10
8.3649007e-10
2.8188604e-09
-8.4081689e-11
9.0751735e-10
2.681896e-09
8.0888708e-10
2.1971552e-09
7.8855487e-14
8.5958573e-11
2.3839524e-09
-4.339044e-14
9.5348383e-10
1.0734807e-10
2.8429914e-09
1.0318926e-09
6.8266697e-11
2.9530782e-09
9.4569362e-10
2.3125425e-13
2.9542769e-09
8.6673097e-10
-6.7824392e-11
2.9543265e-09
8.6670186e-10
-1.0696992e-10
2.9532445e-09
9.4561158e-10
-8.5691881e-11
2.8432933e-09
1.0318479e-09
2.3843239e-09
9.5826675e-14
9.5342987e-10
6.2654384e-12
1.3018769e-11
1.7634398e-10
7.0996444e-16
8.2394772e-12
2.1771084e-11
2.8700211e-10
5.0796629e-12
2.1056253e-11
3.3744177e-10
4.6800421e-14
1.7115203e-11
3.5192591e-10
-4.9934505e-12
1.7113465e-11
3.5195091e-10
-8.1769337e-12
2.1054127e-11
3.3751583e-10
-6.2394437e-12
2.177442e-11
2.8710375e-10
1.302196e-11
1.7642441e-10
-1.1151919e-15
1.7393959e-11
5.2180254e-11
5.3721537e-10
-1.9089987e-15
2.388543e-11
7.9157385e-11
8.1508644e-10
1.5299243e-11
7.6097384e-11
9.3975769e-10
1.2483085e-13
6.333036e-11
9.7472579e-10
-1.5068316e-11
6.3324704e-11
9.747867e-10
-2.371337e-11
7.6089009e-11
9.399411e-10
-1.7314111e-11
7.9165777e-11
8.1534831e-10
5.2185653e-11
5.3743976e-10
5.6980808e-15
2.7295309e-11
1.1534815e-10
8.8800623e-10
-7.2687385e-15
3.8077456e-11
1.6372557e-10
1.2825673e-09
2.4929466e-11
1.5622264e-10
1.4565602e-09
1.8744028e-13
1.3213133e-10
1.5039646e-09
-2.4580996e-11
1.3212038e-10
1.5040483e-09
-3.7811056e-11
1.5620379e-10
1.4568163e-09
-2.7160601e-11
1.6373775e-10
1.2829454e-09
1.1535299e-10
8.8835016e-10
1.8867227e-14
3.6192501e-11
1.9867926e-10
1.2202392e-09
-1.4782238e-14
5.0646111e-11
2.6703021e-10
1.6894051e-09
3.3616565e-11
2.5269961e-10
1.8916898e-09
2.362931e-13
2.1653853e-10
1.9447338e-09
-3.3175158e-11
2.1652169e-10
1.9448299e-09
-5.0300604e-11
2.526668e-10
1.8919882e-09
-3.6003771e-11
2.6704245e-10
1.6898604e-09
1.986794e-10
1.2206769e-09
3.7441654e-14
4.4097741e-11
2.9678629e-10
1.5262929e-09
-2.3702411e-14
6.1434312e-11
3.8043595e-10
2.0359823e-09
4.1137696e-11
3.5698115e-10
2.2491066e-09
2.7321596e-13
3.0940782e-10
2.302291e-09
-4.0624899e-11
3.0938518e-10
2.3023914e-09
-6.1024166e-11
3.5693219e-10
2.2494231e-09
-4.3857721e-11
3.8044341e-10
2.0364815e-09
2.9677703e-10
1.5267984e-09
5.9851911e-14
5.08346e-11
4.030918e-10
1.799367e-09
-3.3390137e-14
7.0195357e-11
4.9525046e-10
2.3232962e-09
4.7293543e-11
4.6081328e-10
2.5329794e-09
3.0009105e-13
4.036433e-10
2.5821024e-09
-4.6727702e-11
4.0361546e-10
2.5822012e-09
-6.9733756e-11
4.6074759e-10
2.5332952e-09
-5.0547375e-11
4.952484e-10
2.323811e-09
4.0306857e-10
1.7999154e-09
8.4682312e-14
5.6075441e-11
5.1024685e-10
2.0335928e-09
-4.3363805e-14
7.6781075e-11
6.0285023e-10
2.5532682e-09
5.1971664e-11
5.5653343e-10
2.7477663e-09
3.187335e-13
4.9250316e-10
2.7898906e-09
-5.1367978e-11
4.9247115e-10
2.7899837e-09
-7.6279523e-11
5.5645198e-10
2.7480676e-09
-5.5746105e-11
6.0283534e-10
2.5537756e-09
5.1020553e-10
2.0341613e-09
1.1077611e-13
5.9393779e-11
2.2241108e-09
-5.2951685e-14
6.1074762e-10
8.1114994e-11
2.7290387e-09
6.9508173e-10
5.5120497e-11
2.8981483e-09
6.3745786e-10
3.3061157e-13
2.9316099e-09
5.6996006e-10
-5.4491129e-11
2.9316947e-09
5.6992471e-10
-8.0583415e-11
2.8984255e-09
6.3736326e-10
-5.9025611e-11
2.7295202e-09
6.9505057e-10
2.2246792e-09
1.3580406e-13
6.1068876e-10
3.9549243e-12
8.054903e-12
1.6433317e-10
9.8999688e-16
5.0702904e-12
1.4523643e-11
2.713631e-10
3.0760192e-12
1.4330463e-11
3.2510558e-10
6.5988317e-14
1.1336648e-11
3.4359929e-10
-2.9562713e-12
1.1335362e-11
3.4363781e-10
-4.9858731e-12
1.4328254e-11
3.2521718e-10
-3.9215709e-12
1.4527391e-11
2.7151206e-10
8.0570494e-12
1.6444782e-10
-2.0314609e-15
1.0860735e-11
3.2855349e-11
5.0155521e-10
-1.0208687e-15
1.488568e-11
5.2941992e-11
7.7264315e-10
9.6187947e-12
5.1742957e-11
9.0761208e-10
1.761021e-13
4.2007435e-11
9.534977e-10
-9.2963755e-12
4.2002272e-11
9.5359227e-10
-1.4651596e-11
5.1734104e-11
9.0789047e-10
-1.0756525e-11
5.295115e-11
7.7302948e-10
3.2855983e-11
5.0187745e-10
6.8506447e-15
1.6998076e-11
7.3230361e-11
8.3063942e-10
-6.2775595e-15
2.4034202e-11
1.0970451e-10
1.2187687e-09
1.6109648e-11
1.0619785e-10
1.4100298e-09
2.645798e-13
8.7780694e-11
1.4740364e-09
-1.562179e-11
8.776958e-11
1.4741674e-09
-2.3669822e-11
1.0617738e-10
1.410421e-09
-1.6820522e-11
1.0971781e-10
1.2193294e-09
7.3225148e-11
8.3113602e-10
2.4452524e-14
2.2596752e-11
1.2689256e-10
1.1439944e-09
-1.4159534e-14
3.248449e-11
1.7932183e-10
1.6099e-09
2.2314095e-11
1.7192349e-10
1.8361345e-09
3.3371547e-13
1.4422512e-10
1.9102697e-09
-2.1695028e-11
1.4420696e-10
1.9104213e-09
-3.2009774e-11
1.7188686e-10
1.8365935e-09
-2.234593e-11
1.7933536e-10
1.610579e-09
1.2687662e-10
1.1446296e-09
4.9878383e-14
2.7757981e-11
1.9064749e-10
1.434804e-09
-2.3988829e-14
4.0200845e-11
2.5631235e-10
1.9465489e-09
2.8082431e-11
2.4342261e-10
2.1897259e-09
3.8599791e-13
2.0691423e-10
2.2672983e-09
-2.7362333e-11
2.0688876e-10
2.267458e-09
-3.963519e-11
2.4336665e-10
2.1902162e-09
-2.7436706e-11
2.5632082e-10
1.9472975e-09
1.9061596e-10
1.4355414e-09
8.1023009e-14
3.2447496e-11
2.6059498e-10
1.6970071e-09
-3.5134592e-14
4.7050968e-11
3.3527727e-10
2.2297278e-09
3.3253849e-11
3.1551494e-10
2.4746842e-09
4.2400684e-13
2.7154278e-10
2.5503037e-09
-3.2458625e-11
2.7151044e-10
2.5504622e-09
-4.6412449e-11
3.154383e-10
2.4751774e-09
-3.2060716e-11
3.352754e-10
2.2305047e-09
2.6054348e-10
1.6978113e-09
1.1590907e-13
3.6498125e-11
3.3240427e-10
1.9253325e-09
-4.7093708e-14
5.2910547e-11
4.1096197e-10
2.4611711e-09
3.7689566e-11
3.8349122e-10
2.695011e-09
4.5025035e-13
3.3408923e-10
2.7645835e-09
-3.6840859e-11
3.3405105e-10
2.7647342e-09
-5.2215236e-11
3.8339447e-10
2.6954858e-09
-3.6052458e-11
4.1094597e-10
2.4619423e-09
3.323289e-10
1.9261706e-09
1.5284543e-13
3.9567906e-11
2.1153091e-09
-5.9241606e-14
4.0169728e-10
5.7616087e-11
2.6435663e-09
4.7838615e-10
4.1251483e-11
2.8547524e-09
4.4325169e-10
4.6679696e-13
2.9155248e-09
3.9095908e-10
-4.0366724e-11
2.9156634e-09
3.9091588e-10
-5.6877985e-11
2.8551937e-09
4.4313757e-10
-3.9067952e-11
2.6443042e-09
4.7835198e-10
2.1161519e-09
1.8855555e-13
4.0159969e-10
2.5983003e-12
5.1947691e-12
1.5653869e-10
1.4090555e-15
3.2615684e-12
9.9166258e-12
2.6078321e-10
1.9485894e-12
1.0101899e-11
3.1631666e-10
9.3078425e-14
7.9981861e-12
3.3745661e-10
-1.7822438e-12
7.99754e-12
3.3751559e-10
-3.1478816e-12
1.0098075e-11
3.1648474e-10
-2.5558109e-12
9.9179042e-12
2.6100208e-10
5.1924945e-12
1.5670274e-10
-3.2308692e-15
7.0729786e-12
2.1368395e-11
4.7830668e-10
1.9276266e-15
9.6098789e-12
3.6301214e-11
7.4372166e-10
6.2332767e-12
3.6536289e-11
8.8455429e-10
2.4827214e-13
2.9679658e-11
9.3780123e-10
-5.7835372e-12
2.9674968e-11
9.3794665e-10
-9.2926454e-12
3.6522521e-11
8.8497513e-10
-6.9383552e-12
3.6301697e-11
7.442914e-10
2.1353313e-11
4.7876992e-10
8.3524557e-15
1.100891e-11
4.7965908e-11
7.9303326e-10
-2.6740727e-16
1.5581861e-11
7.552122e-11
1.1749757e-09
1.0606195e-11
7.5126521e-11
1.3764153e-09
3.7288556e-13
6.211657e-11
1.4518328e-09
-9.9244691e-12
6.2104619e-11
1.4520351e-09
-1.5085987e-11
7.5096473e-11
1.3770086e-09
-1.077778e-11
7.5517871e-11
1.175805e-09
4.7930114e-11
7.9374963e-10
3.1809676e-14
1.459618e-11
8.3685209e-11
1.0936853e-09
-6.4107023e-15
2.1209984e-11
1.2396763e-10
1.5548398e-09
1.4926044e-11
1.2191674e-10
1.7956283e-09
4.7013939e-13
1.0228436e-10
1.8845578e-09
-1.4060205e-11
1.0226327e-10
1.8847929e-09
-2.0561693e-11
1.2186465e-10
1.7963268e-09
-1.4267576e-11
1.2395598e-10
1.5558468e-09
8.3621377e-11
1.0946044e-09
6.6350201e-14
1.7947058e-11
1.2659289e-10
1.3739639e-09
-1.4684427e-14
2.6521616e-11
1.7803196e-10
1.88391e-09
1.9110409e-11
1.7317613e-10
2.1458777e-09
5.4349595e-13
1.4721027e-10
2.2409393e-09
-1.8102855e-11
1.471793e-10
2.2411883e-09
-2.5746862e-11
1.7309798e-10
2.1466269e-09
-1.7523744e-11
1.7800704e-10
1.8850233e-09
1.2649597e-10
1.3750339e-09
1.0917231e-13
2.1085485e-11
1.7426881e-10
1.6282707e-09
-2.5019701e-14
3.1466801e-11
2.3417293e-10
2.1632055e-09
2.3057408e-11
2.2542338e-10
2.4308464e-09
5.9656094e-13
1.9404183e-10
2.525933e-09
-2.1944722e-11
1.9400121e-10
2.5261816e-09
-3.0590177e-11
2.2531752e-10
2.4316033e-09
-2.0573244e-11
2.3413036e-10
2.1643644e-09
1.7413569e-10
1.6294408e-09
1.5756523e-13
2.3936069e-11
2.2399484e-10
1.8517075e-09
-3.7165163e-14
3.5977787e-11
2.8895451e-10
2.3943478e-09
2.6662214e-11
2.7551221e-10
2.6542377e-09
6.3285597e-13
2.401349e-10
2.7445197e-09
-2.5475115e-11
2.4008574e-10
2.7447576e-09
-3.5021496e-11
2.7537947e-10
2.6549702e-09
-2.3343172e-11
2.8889204e-10
2.3955023e-09
2.2382367e-10
1.8529303e-09
2.0913571e-13
2.625332e-11
2.0400596e-09
-5.123372e-14
2.7304225e-10
3.9925587e-11
2.5797727e-09
3.3907583e-10
2.9799425e-11
2.8197118e-09
3.2067904e-10
6.5533627e-13
2.9016981e-09
2.8310569e-10
-2.856276e-11
2.9019183e-09
2.830489e-10
-3.8909086e-11
2.8203966e-09
3.2052288e-10
-2.5585953e-11
2.5808822e-09
3.3899096e-10
2.0412927e-09
2.5932483e-13
2.728376e-10
1.8258306e-12
3.5108358e-12
1.5119941e-10
2.6145695e-15
2.2880719e-12
7.0134848e-12
2.5330748e-10
1.3749223e-12
7.4638658e-12
3.0976594e-10
1.3221798e-13
6.081342e-12
3.3261798e-10
-1.1418452e-12
6.0808738e-12
3.3270878e-10
-2.1346493e-12
7.4549108e-12
3.1002263e-10
-1.7724429e-12
7.0057914e-12
2.5363409e-10
3.4975272e-12
1.5143774e-10
-4.9686725e-15
4.9139285e-12
1.454528e-11
4.6234841e-10
9.9009413e-15
6.6598884e-12
2.5788723e-11
7.2320046e-10
4.3713614e-12
2.7012847e-11
8.6729384e-10
3.5214721e-13
2.2498356e-11
9.2540343e-10
-3.7401641e-12
2.2491881e-11
9.2562795e-10
-6.2300925e-12
2.6981875e-11
8.679381e-10
-4.7429219e-12
2.5756775e-11
7.2405325e-10
1.4489411e-11
4.6302505e-10
1.0063239e-14
7.580507e-12
3.282199e-11
7.6715925e-10
1.6790171e-14
1.072254e-11
5.3863169e-11
1.1437592e-09
7.4193804e-12
5.5619547e-11
1.3511117e-09
5.2823473e-13
4.702505e-11
1.4341972e-09
-6.4622694e-12
4.7007214e-11
1.4345103e-09
-1.0048945e-11
5.5556068e-11
1.3520211e-09
-7.2854934e-12
5.379629e-11
1.1450021e-09
3.2704194e-11
7.6820826e-10
4.1093039e-14
9.9729294e-12
5.7555958e-11
1.0589569e-09
2.1529924e-14
1.4539747e-11
8.8781259e-11
1.5153549e-09
1.0445893e-11
9.0443678e-11
1.764898e-09
6.6510566e-13
7.7419682e-11
1.863944e-09
-9.2306426e-12
7.7387404e-11
1.8643085e-09
-1.3657209e-11
9.034014e-11
1.7659693e-09
-9.5517933e-12
8.8673169e-11
1.5168645e-09
5.7364731e-11
1.0603044e-09
8.7636138e-14
1.219273e-11
8.7530774e-11
1.3317734e-09
2.2995704e-14
1.8170675e-11
1.2807874e-10
1.8386346e-09
1.3420305e-11
1.2881808e-10
2.1122537e-09
7.677055e-13
1.1151466e-10
2.219497e-09
-1.2007107e-11
1.1146671e-10
2.2198838e-09
-1.7114095e-11
1.2867062e-10
2.1134034e-09
-1.1647923e-11
1.2792682e-10
1.8403035e-09
8.7261698e-11
1.333343e-09
1.4599889e-13
1.4283816e-11
1.2118611e-10
1.5803111e-09
2.0468615e-14
2.1616646e-11
1.6932461e-10
2.1146268e-09
1.6292454e-11
1.6825585e-10
2.3967328e-09
8.4119965e-13
1.4724999e-10
2.505649e-09
-1.4733377e-11
1.4718674e-10
2.5060361e-09
-2.0419459e-11
1.6806454e-10
2.3978955e-09
-1.3621729e-11
1.6912961e-10
2.1163639e-09
1.2084046e-10
1.5820277e-09
2.1252468e-13
1.621885e-11
1.5673813e-10
1.7999231e-09
1.3572779e-14
2.4857006e-11
2.1013875e-10
2.3448955e-09
1.9001063e-11
2.0649676e-10
2.6218527e-09
8.9064007e-13
1.8271891e-10
2.7271612e-09
-1.7339928e-11
1.8264208e-10
2.7275328e-09
-2.3549706e-11
2.0626519e-10
2.6229793e-09
-1.5449286e-11
2.0990538e-10
2.3466261e-09
1.5632065e-10
1.8017169e-09
2.8390785e-13
1.7826434e-11
1.9865828e-09
2.3476338e-15
1.9238614e-10
2.7812673e-11
2.5317397e-09
2.4818553e-10
2.1458255e-11
2.7910354e-09
2.4152755e-10
9.2032721e-13
2.888766e-09
2.1618888e-10
-1.9730531e-11
2.8891112e-09
2.1610007e-10
-2.6421902e-11
2.7920905e-09
2.4126268e-10
-1.6957188e-11
2.5334034e-09
2.4791938e-10
1.9883911e-09
3.5386698e-13
1.9191121e-10
1.3707745e-12
2.523679e-12
1.4729882e-10
6.1307459e-15
1.7757702e-12
5.1616385e-12
2.4774084e-10
1.1185663e-12
5.7598624e-12
3.0466328e-10
1.8964459e-13
4.907894e-12
3.28639e-10
-7.880277e-13
4.9053695e-12
3.2878108e-10
-1.5685877e-12
5.7364536e-12
3.0506674e-10
-1.3057717e-12
5.1260457e-12
2.4824522e-10
2.4802001e-12
1.4765945e-10
-7.6826992e-15
3.6577184e-12
1.0464618e-11
4.5071731e-10
3.2439782e-14
5.0525706e-12
1.9058606e-11
7.0790864e-10
3.4375324e-12
2.0851975e-11
8.5381676e-10
5.041943e-13
1.807386e-11
9.151708e-10
-2.5431881e-12
1.8058699e-11
9.15522e-10
-4.4703048e-12
2.0774581e-11
8.5482709e-10
-3.4474624e-12
1.893492e-11
7.0922153e-10
1.0304632e-11
4.5174184e-10
1.1317418e-14
5.5929374e-12
2.3648256e-11
7.4831707e-10
6.5606813e-14
8.0088511e-12
3.9940852e-11
1.1204611e-09
5.7127855e-12
4.297294e-11
1.3312868e-09
7.5497769e-13
3.7670644e-11
1.4195583e-09
-4.3579556e-12
3.7634035e-11
1.4200479e-09
-7.094672e-12
4.2821997e-11
1.3327104e-09
-5.2291089e-12
3.970178e-11
1.1223696e-09
2.3328767e-11
7.4990351e-10
5.1511018e-14
7.2858658e-12
4.1556629e-11
1.0336634e-09
9.921021e-14
1.0719146e-11
6.6054476e-11
1.485808e-09
7.9165006e-12
6.9974323e-11
1.7406992e-09
9.4867336e-13
6.1901151e-11
1.8466813e-09
-6.1984535e-12
6.18383e-11
1.8472514e-09
-9.5199467e-12
6.9739797e-11
1.742373e-09
-6.7650441e-12
6.5691501e-11
1.4881199e-09
4.1057454e-11
1.0356974e-09
1.1331333e-13
8.8204473e-12
6.3370286e-11
1.3010108e-09
1.284337e-13
1.3254661e-11
9.5632056e-11
1.8046228e-09
1.0053641e-11
9.9841727e-11
2.0855873e-09
1.0924843e-12
8.9056109e-11
2.2013032e-09
-8.0589934e-12
8.8965538e-11
2.2019081e-09
-1.181776e-11
9.9522385e-11
2.0873795e-09
-8.1442466e-12
9.515047e-11
1.807171e-09
6.269072e-11
1.3033735e-09
1.9193428e-13
1.0243282e-11
8.802465e-11
1.5452637e-09
1.4973345e-13
1.5645372e-11
1.2691965e-10
2.0779371e-09
1.2112484e-11
1.3069463e-10
2.3694128e-09
1.1939802e-12
1.1752843e-10
2.4880951e-09
-9.9162538e-12
1.1741145e-10
2.4887004e-09
-1.4016408e-11
1.3029674e-10
2.3712213e-09
-9.4179506e-12
1.2633473e-10
2.0805812e-09
8.7178641e-11
1.5478393e-09
2.8252294e-13
1.1550536e-11
1.1428951e-10
1.761947e-09
1.6068034e-13
1.7902479e-11
1.5818358e-10
2.3072796e-09
1.4068957e-11
1.6081323e-10
2.5955677e-09
1.2605764e-12
1.4583689e-10
2.7116612e-09
-1.1734274e-11
1.45697e-10
2.7122421e-09
-1.612331e-11
1.603487e-10
2.5973164e-09
-1.0586635e-11
1.5751852e-10
2.3099056e-09
1.1329958e-10
1.7646288e-09
3.8058713e-13
1.2620328e-11
1.9471681e-09
1.5719233e-13
1.4092675e-10
1.9987408e-11
2.4948663e-09
1.8768989e-10
1.5872385e-11
2.7673166e-09
1.8864707e-10
1.298648e-12
2.8765445e-09
1.726321e-10
-1.3450202e-11
2.8770844e-09
1.7247265e-10
-1.8094285e-11
2.7689517e-09
1.8813151e-10
-1.1526612e-11
2.4973843e-09
1.8696999e-10
1.9498614e-09
4.7753812e-13
1.3982512e-10
1.0908249e-12
1.9757698e-12
1.442132e-10
1.9025626e-14
1.5169306e-12
3.9798385e-12
2.433349e-10
1.0470121e-12
4.6154362e-12
3.0051776e-10
2.7872669e-13
4.1215206e-12
3.2528577e-10
-5.6405251e-13
4.1105012e-12
3.2551336e-10
-1.2305771e-12
4.5500087e-12
3.0118325e-10
-1.0141769e-12
3.8633428e-12
2.4416548e-10
1.8517942e-12
1.4480621e-10
-1.2725591e-14
2.8946484e-12
8.1244512e-12
4.4157055e-10
1.0342868e-13
4.2077316e-12
1.4739807e-11
6.9583559e-10
3.0699262e-12
1.6706897e-11
8.428631e-10
7.389842e-13
1.510509e-11
9.0651817e-10
-1.7698459e-12
1.5059829e-11
9.070815e-10
-3.4061341e-12
1.6490346e-11
8.4452304e-10
-2.6502793e-12
1.4320794e-11
6.9800822e-10
7.6809658e-12
4.432523e-10
1.0087121e-14
4.3917415e-12
1.8264609e-11
7.3357273e-10
2.1244222e-13
6.546307e-12
3.0945582e-11
1.1021007e-09
4.9425433e-12
3.4442409e-11
1.3151551e-09
1.1033056e-12
3.1382052e-11
1.4071205e-09
-2.9803913e-12
3.128639e-11
1.407905e-09
-5.2919472e-12
3.4029172e-11
1.3174831e-09
-3.9721947e-12
3.0182392e-11
1.1051883e-09
1.7394764e-11
7.361581e-10
5.9415628e-14
5.6622374e-12
3.198046e-11
1.0139583e-09
3.2705892e-13
8.6069723e-12
5.125759e-11
1.4625512e-09
6.666257e-12
5.6118332e-11
1.720964e-09
1.3816313e-12
5.1437135e-11
1.8319108e-09