/*--------------------------------*- C++ -*----------------------------------*\
  =========                 |
  \\      /  F ield         | OpenFOAM: The Open Source CFD Toolbox
   \\    /   O peration     | Website:  https://openfoam.org
    \\  /    A nd           | Version:  13
     \\/     M anipulation  |
\*---------------------------------------------------------------------------*/
FoamFile
{
    format      ascii;
    class       volScalarField;
    location    "0.11";
    object      rho;
}
// * * * * * * * * * * * * * * * * * * * * * * * * * * * * * * * * * * * * * //

dimensions      [1 -3 0 0 0 0 0];

internalField   nonuniform List<scalar> 
51200
(
1
1
1
1
1
1
1
1
1
1
1
1
1
1
1
1
1
1
1
1
1
1
1
1
1
1
1
1
1
1
1
1
1
1
1
1
1
1
1
1
1
1
1
1
1
1
1
1
1
1
1
1
1
1
1
1
1
1
1
1
1
1
1
1
1
1
1
1
1
1
1
1
1
1
1
1
1
1
1
1
1
1
1
1
1
1
1
1
1
1
1
1
1
1
1
1
1
1
1
1
1
1
1
1
1
1
1
1
1
1
1
1
1
1
1
1
1
1
1
1
1
1
1
1
1
1
1
1
1
1
1
1
1
1
1
1
1
1
1
1
1
1
1
1
1
1
1
1
1
1
1
1
1
1
1
1
1
1
1
1
1
1
1
1
1
1
1
1
1
1
1
1
1
1
1
1
1
1
1
1
1
1
1
1
1
1
1
1
1
1
1
1
1
1
1
1
1
1
1
1
1
1
1
1
1
1
1
1
1
1
1
1
1
1
1
1
1
1
1
1
1
1
1
1
1
1
1
1
1
1
1
1
1
1
1
1
1
1
1
1
1
1
1
1
1
1
1
1
1
1
1
1
1
1
1
1
1
1
1
1
1
1
1
1
1
1
1
1
1
1
1
1
1
1
1
1
1
1
1
1
1
1
1
1
1
1
1
1
1
1
1
1
1
1
1
1
1
1
1
1
1
1
1
1
1
1
1
1
1
1
1
1
1
1
1
1
1
1
1
1
1
1
1
1
1
1
1
1
1
1
1
1
1
1
1
1
1
1
1
1
1
1
1
1
1
1
1
1
1
1
1
1
1
1
1
1
1
1
1
1
1
1
1
1
1
1
1
1
1
1
1
1
1
1
1
1
1
1
1
1
1
1
1
1
1
1
1
1
1
1
1
1
1
1
1
1
1
1
1
1
1
1
1
1
1
1
1
1
1
1
1
1
1
1
1
1
1
1
1
1
1
1
1
1
1
1
1
1
1
1
1
1
1
1
1
1
1
1
1
1
1
1
1
1
1
1
1
1
1
1
1
1
1
1
1
1
1
1
1
1
1
1
1
1
1
1
1
1
1
1
1
1
1
1
1
1
1
1
1
1
1
1
1
1
1
1
1
1
1
1
1
1
1
1
1
1
1
1
1
1
1
1
1
1
1
1
1
1
1
1
1
1
1
1
1
1
1
1
1
1
1
1
1
1
1
1
1
1
1
1
1
1
1
1
1
1
1
1
1
1
1
1
1
1
1
1
1
1
1
1
1
1
1
1
1
1
1
1
1
1
1
1
1
1
1
1
1
1
1
1
1
1
1
1
1
1
1
1
1
1
1
1
1
1
1
1
1
1
1
1
1
1
1
1
1
1
1
1
1
1
1
1
1
1
1
1
1
1
1
1
1
1
1
1
1
1
1
1
1
1
1
1
1
1
1
1
1
1
1
1
1
1
1
1
1
1
1
1
1
1
1
1
1
1
1
1
1
1.0000003
1
1
1
1
1
1
1
1
1
1
1
1
1
1
1
1
1
1
1
1
1
1
1
1
1
1
1
1
1
1
1
1
1
1
1
1
1
1
1
1
1
1
1
1
1
1
1
1
1
1
1
1
1
1
1
1
1
1
1
1
1
1.0000002
1.00003
1.0000014
1
1
1
1
1
1
1.0000001
1
1
1
1
1
1
1
1
1
1
1
1
1
1
1
1
1
1
1
1
1
1
1
1
1
1
1
1
1
1
1
1
1
1
1
1
1
1
1
1
1
1
1
1
1
1
1
1
1
1
1
1
1
1.0000003
1
1.000233
1
1.0000001
1
1
1
1
1
1.0000009
1
1
1
1
1
1
1
1
1
1
1
1
1
1
1
1
1
1
1
1
1
1
1
1
1
1
1
1
1
1
1
1
1
1
1
1
1
1
1
1
1
1
1
1
1
1
1
1
1
1.0002776
1.0000098
1
1
1.0000069
1.000488
1.0003546
1.0002769
1.0000007
1.0000001
1
1
1
1
1.0000017
1
1
1
1
1
1
1
1
1
1
1
1
1
1
1
1
1
1
1
1
1
1
1
1
1
1
1
1
1
1
1
1
1
1
1
1
1
1
1
1
1
1
1
1
1
1
1
1
1
1.0003246
1.0001642
1.000001
1
1.0000089
1.0043408
1.0002781
1.0005774
1.0000003
1.0000008
1
1
1.0000001
1.0000275
1.0000013
1.0000005
1
1
1
1
1
1
1
1
1
1
1
1
1
1
1
1
1
1
1
1
1
1
1
1
1
1
1
1
1
1
1
1
1
1
1
1
1
1
1
1
1
1
1
1
1
1
1
1
1.0012824
1.0001679
1.0000003
1.0000782
1
1.0053778
1.0000973
1.0005724
1
1.0000014
1.0000001
1.0000001
1
1.0001894
1.000002
1.0000032
1
1
1
1
1
1
1
1
1
1
1
1
1
1
1
1
1
1
1
1
1
1
1
1
1
1
1
1
1
1
1
1
1
1
1
1
1
1
1
1
1
1
1
1
1
1
1
1
1.0152999
1.0001109
1
1.0003215
1.0111116
1.0041766
1.0000001
1.0001229
1
1.0000025
1.0000001
1.0000007
1
1.0001841
1.0000068
1.0000126
1
1
1
1
1
1
1
1
1
1
1
1
1
1
1
1
1
1
1
1
1
1
1
1
1
1
1
1
1
1
1
1
1
1
1
1
1
1
1
1
1
1
1
1
1
1
1
1
1.0186615
1.000196
1
1.0004265
1.0340574
1.0025295
1.0000001
1.0000001
1.0015408
1.0000141
1
1.0000055
1.0014765
1.0001426
1.0000462
1.0000114
1.0004107
1
1
1
1
1
1
1.0000001
1.0000023
1
1
1
1
1
1
1
1
1
1
1
1
1
1
1
1
1
1
1
1
1
1
1
1
1
1
1
1
1
1
1
1
1
1
1
1
1
1
1
1.0090033
1.0009495
1
1.0003448
1.0346569
1.0040677
1.0014287
1.0035745
1.0099528
1.0000012
1
1.0000126
1.0035298
1.0001191
1.0000059
1
1.0006625
1.000001
1
1
1
1
1
1
1.000002
1
1
1
1
1
1
1
1.0000002
1
1
1
1
1
1
1
1
1
1
1
1
1
1
1
1
1
1
1
1
1
1
1
1
1
1
1
1
1
1
1
1.0027776
1.0012411
1.0000116
1.0000837
1.0346569
1.0064134
1.0071525
1.0381956
1.0134405
1
1.0000001
1.0000066
1.0062344
1.0002262
1
1.0000018
1.0000001
1.0000033
1
1
1
1
1
1
1.0000008
1
1
1
1
1
1
1
1.0000006
1
1
1
1
1
1
1
1
1
1
1
1
1
1
1
1
1
1
1
1
1
1
1
1
1
1
1
1
1
1
1
1.0018593
1.0007621
1.0000053
1.0000002
1.0346569
1.0068112
1.0089326
1.0441412
1.0079726
1
1
1
1.0252393
1.0008719
1
1.0303281
1.0000001
1.000004
1
1
1.0011014
1.000008
1.0000001
1.0021225
1.0000001
1
1
1
1
1
1
1
1.0000014
1
1
1
1
1
1
1
1
1
1
1
1
1
1
1
1
1
1
1
1
1
1
1
1
1
1
1
1
1
1
1
1.0020192
1.0000799
1
1.0000924
1.0220091
1.0051431
1.01613
1.0441407
1.0014308
1.0000007
1
1
1.0288296
1.0029786
1.0000001
1.0441412
1.0002379
1.0000038
1
1
1.0031709
1.0000759
1.0000063
1.0368853
1.0000002
1
1
1
1
1
1.0000001
1.0067311
1.0000018
1.0000001
1
1
1
1
1
1
1
1
1
1
1
1
1
1
1
1
1
1
1
1
1
1
1
1
1
1
1
1
1
1
1.0021564
1.0000006
1
1.0001296
1.0021308
1.0018489
1.0181941
1.0189217
1.0000334
1
1
1
1.0288303
1.0031035
1.0002017
1.0369585
1.0006119
1.0000008
1
1
1.0065488
1.0007373
1.0001198
1.0391052
1.0000029
1
1
1
1.0000195
1.0000133
1.0000085
1.0156939
1.0000018
1.0000001
1
1
1
1
1.0000001
1.0000035
1
1
1
1
1
1
1
1
1
1
1
1
1
1
1
1
1
1
1
1
1
1
1
1
1.0020184
1.0000006
1.0000219
1.0000469
1.0012484
1.0015556
1.0096599
1.002986
1.000041
1.0000236
1.0000253
1
1.0288297
1.0036084
1.0015957
1.0216309
1.0009236
1.0000001
1
1
1.021832
1.0023829
1.0015423
1.0357931
1.0000291
1
1
1
1.0019822
1.0002091
1.0000338
1
1.0000014
1.0000001
1
1
1
1.0000001
1
1
1
1
1
1
1
1
1
1
1
1
1
1
1
1
1
1
1
1
1
1
1
1
1
1
1.0013765
1.0000003
1.0000145
1.0000003
1.0152329
1.0025642
1.0003865
1.0029648
1.0001285
1.0000472
1.0000384
1
1.0107747
1.0037283
1.0034687
1.0095996
1.0005118
1
1
1
1.0159743
1.0043264
1.0017639
1.0247654
1.0000236
1
1
1
1.0019832
1.0004235
1.0000233
1
1.0000006
1.0000001
1
1
1
1
1
1
1
1
1
1
1
1
1
1
1
1
1
1
1
1
1
1
1
1
1
1
1
1
1
1
1.0009328
1.0000003
1.0000003
1.1473489
1.0231059
1.000364
1.0002892
1.0025672
1.0007147
1.0000097
1.0000002
1.1228595
1.0116322
1.0015879
1.002795
1.0050845
1.0000822
1
1
1.0725601
1.010309
1.0027999
1.0015741
1.0164368
1.0000096
1
1
1.0233177
1.0012868
1
1.000028
1
1
1
1
1.0000372
1
1
1
1.0000009
1
1
1
1
1
1
1
1
1
1
1
1
1
1
1
1
1
1
1
1
1
1
1
1
1.0004379
1.0000003
1.0525832
1.2609152
1.1852777
1.0071757
1.0002892
1.0015874
1.0011803
1.0000002
1.0610477
1.2609152
1.1743892
1.0075279
1.0004609
1.0037188
1.0000086
1
1.0547094
1.2608619
1.1715947
1.0167933
1.0000745
1.0120271
1.000001
1
1.0677316
1.2607053
1.114453
1.0062766
1.0000001
1.0000001
1
1
1.0572282
1.2604076
1.1931824
1.0198444
1
1.0000001
1
1
1.0533366
1.2598023
1.2591952
1.019061
1
1
1
1
1.0482552
1.2184775
1.2142148
1.0165437
1
1
1
1
1.0306557
1.0987326
1.074845
1.0078583
1
1
1.0000553
1.0000004
1.1030433
1.053973
1.0507111
1.0528128
1.0079135
1.000752
1.0006014
1.0026191
1.1030356
1.0573176
1.028909
1.0288246
1.0035641
1.0031664
1.0000007
1.0036698
1.0833294
1.046213
1.0299983
1.0306642
1.0042605
1.0091299
1.0000003
1.003636
1.03401
1.0377585
1.0141642
1.0148909
1.001701
1.0006383
1.0000119
1.0091233
1.0612375
1.0298795
1.0089751
1.0088294
1.008801
1.0015256
1.0000754
1.0056941
1.0713774
1.0359832
1.0264559
1.0494909
1.0233442
1
1
1.0124101
1.0713051
1.0503099
1.0463245
1.06519
1.0110037
1
1.0000009
1.0118427
1.0712038
1.0533344
1.0335176
1.027309
1.0012981
1
1.0000034
1.0368505
1.1030356
1.0427855
1.0606077
1.1182942
1.0264378
1.0002786
1.0000034
1.0206399
1.1030376
1.0315482
1.0395731
1.2828997
1.0186487
1.0033148
1.0000039
1.0100616
1.0884076
1.0260865
1.0271411
1.2928594
1.0158658
1.0088963
1.0004171
1.0025133
1.0141108
1.0151847
1.0193575
1.2047335
1.0182425
1
1.0002794
1.0234266
1.0708063
1.0119954
1.0131507
1.1397172
1.0201736
1.0004064
1.0000083
1.0429471
1.071327
1.0115478
1.0126462
1.1155997
1.0155079
1.0000001
1.0002258
1.0137272
1.051963
1.0106939
1.0718293
1.0916248
1.0072155
1.0000022
1.0001447
1.0067047
1.0338086
1.0102512
1.0113258
1.0860285
1.0031863
1
1.0016742
1.0439777
1.0034568
4.9058161
56.48012
1.0012633
1.0176357
1.0003404
1.0001511
1.031566
1.0038761
3.2737231
60.450214
1.0012331
1.0093035
1.0031569
1.0000159
1.0036469
1.0037885
2.4813011
55.885007
1.0016003
1.0078046
1.0050077
1.0014715
1.012807
1.0069823
1.3753705
57.978631
1.0022318
1.0029723
1
1.0000002
1.0317707
1.0202842
1.0123493
49.690707
1.000804
1.0010973
1.0000001
1.0000097
1.0054134
1.0056194
1.0094793
50.882233
1.0001332
1.0000004
1.0000003
1.0001994
1.0003889
1.000274
1.0062782
38.609044
1.0000818
1.0000446
1.0000005
1.0001123
1.0007154
1.0000529
1.000833
38.581105
1.000033
1.0000008
1
1.0001593
1.0002177
1.0003394
86.510554
171.62968
1.0001183
1.0000301
1.0045563
1.0001517
1.0025095
1.0015863
94.526866
179.70402
1.0000764
1.0000095
1.0007288
1.0010823
1.0005567
1.0005874
86.713208
180.40294
1.0000751
1.0000037
1.0000855
1.0004132
1.00025
3.6703511
91.769976
182.63905
1.3379808
1.0000013
1.0000001
1.0000003
1.004593
6.5878526
72.616077
182.26326
2.8639946
1.0000015
1.0000094
1
1.0000003
10.464191
72.236737
178.0048
2.510636
1.0000013
1.0003536
1.0000167
1.0000469
7.6810365
52.979762
177.7778
1.0000085
1.0000034
1.0004244
1.0000172
1.0000153
8.8882913
53.915085
162.79078
5.6689218
1.0000147
1.0000106
1.0170677
1.0003326
54.862302
182.74459
182.74389
24.518058
1.0000075
1.0062019
1.0200132
1.0005087
67.757725
182.72024
182.74408
35.359966
1.0000042
1.000006
1.0208258
1.00025
68.462183
182.67723
182.7202
35.828854
1.000002
1.0000021
1.0011975
1.0000829
72.626895
182.63895
182.677
43.870388
1.0000015
1.0000011
1.0000006
1.0000068
70.885266
182.57676
182.63659
45.449191
1.000001
1.0000002
1.0000005
1.0000006
78.056133
182.4692
182.56758
50.536179
1.0000015
1.0000096
1.0000006
1.2411859
83.345232
180.59356
182.45209
41.266707
1.0000018
1.0001624
1.0000014
1.1280812
87.636976
157.31133
181.37697
45.266546
1.0000215
1.0001291
1.5330277
1.0429364
1.7802726
80.029471
143.53416
1.0001032
1.0000279
1.0124584
1.2574912
1.2338167
1.8903147
87.250436
150.27891
2.9083334
1.0000075
1.0013925
1.0004225
1.0491494
1.0515637
82.709032
148.40927
1.1370763
1.0000042
1.0003949
1.00015
1.2928712
4.3919653
85.645858
154.65223
2.4242778
1.000002
1.0001128
1.0000068
1.6236015
7.1016033
65.147175
147.53492
1.0000297
1.0000015
1.0015201
1.0000006
1.630312
14.460253
66.495244
151.77067
1.0000351
1.0000018
1.0018785
1.0000014
1.5980682
13.926331
49.88509
139.03785
1.0000062
1.0000032
1.0000054
1.0000025
1.7525786
10.426839
53.049195
138.58709
1.0018523
1.000732
1.0000167
1.3254883
1.7333354
1.1831449
16.445074
58.132827
1.0003651
1.0023633
1.0078426
1.1478115
1.733609
1.1807445
15.619787
57.43157
1.8752492
1.0000233
1.0038633
1.093826
1.2734029
1.1363211
12.905049
51.571097
2.9396139
1.0000131
1.0016561
1.1005514
1.1389219
1.0321317
11.044724
49.019775
1.7105121
1.0000063
1.0005985
1.0810384
1.1569988
1.0239948
9.6607819
44.196732
1.52447
1.000013
1.0010288
1.035677
1.1865975
1.0255969
8.018311
35.041246
1.2757578
1.0000193
1.0035943
1.0753784
1.1516052
1.0794384
5.1991861
30.413941
1.0000623
1.0000054
1.0046153
1.1130189
1.3017286
1.5975115
3.3936689
24.795428
1.0004548
1.0008708
1.0047701
1.9538402
1.6789273
1.1834114
2.0725298
18.294701
1.0005627
1.0018592
1.006484
1.9537545
1.5380231
1.1819511
1.5900652
19.727816
1.0005623
1.0028569
1.0017914
1.9532043
1.9522788
1.1174264
1.3916259
18.588718
1.0006558
1.0042419
1.0005167
1.9525027
1.9509358
1.0235779
1.0566807
17.978242
1.0008137
1.0019516
1.0006731
1.9528297
1.3591345
1.0235779
1.0606754
16.970098
1.0004725
1.000406
1.000001
1.9525063
1.1214245
1.0239948
1.0969495
15.08244
1.0005781
1.001714
1.0011965
1.9505261
1.1857295
1.0667537
1.1590326
15.145551
1.0003948
1.004509
1.00339
1.8237389
1.369943
1.2618203
1.5089862
11.034494
1.0006176
1.0066006
1.0018482
1.2657308
1.2405737
1.3045385
1.0596443
1.0134294
1.027984
1.0037239
1.0059445
1.2909832
1.2383391
1.4478304
1.0598588
1.1222482
1.0607237
1.0077324
1.0042173
1.2520663
1.3454389
1.4480104
1.0974711
1.2610424
1.1007883
1.0084529
1.0000002
1.2608882
1.3910312
1.3874901
1.0327426
1.2427026
1.350268
1.0000004
1.0000002
1.293047
1.2570159
1.2086046
1.065516
1.211873
1.2545726
1.0086526
1.0000002
1.3608397
1.0147084
1.0490114
1.1077495
1.1158578
1.0028349
1.0252615
1.0001477
1.3543464
1.1753806
1.0410371
1.0302172
1.0461654
1.0261619
1.0300228
1.0000002
1.0661745
1.2694167
1.133469
1.0214141
1.292868
1.0911484
1.0259274
1.0000003
1.0306997
1.0180727
1.0428795
1.0524832
1.0115322
1.0560213
1.0082471
1.0006245
1.37705
1.2043429
1.2581774
1.1400362
1.0048822
1.0092616
1.0060713
1.0078104
1.355526
1.2684461
1.2399037
1.067525
1.0008958
1.0315149
1.0143185
1.0057299
1.0144488
1.0144463
1.0185713
1.0087813
1.0004756
1.139042
1.0127904
1.0000002
1.0376343
1.0195222
1.0514053
1.013551
1.0004709
1.2552288
1.0326478
1.0000002
1.0147024
1.0145207
1.0139511
1.0234758
1.0004921
1.1470156
1.0386909
1.0000002
1.014832
1.0205274
1.0026765
1.0007828
1.0001823
1.0780164
1.0299631
1.0000002
1.0239835
1.0257557
1.0165074
1.0006608
1.0001763
1.0881788
1.0291795
1.0000002
1.0013983
1.0013995
1.0912726
1.0056468
1.0056398
1.0624627
1.0107127
1.0006245
1.0013995
1.0894341
1.0530067
1.0529478
1.0044675
1.0178501
1.0060662
1.005321
1.1377966
1.1602438
1.2155077
1.0015724
1.0007606
1.0017012
1.003916
1.008423
1.283428
1.0284436
1.0768859
1.0014497
1.0004223
1.0055918
1.0002179
1.0000002
1.0192709
1.1176359
1.000189
1.0002227
1.0002527
1.0568212
1.0062651
1.0000174
1.0260674
1.0631467
1.0001462
1.0001363
1.0001737
1.0868727
1.0170961
1.0000099
1.0312735
1.0087671
1.0001363
1.0001317
1.000127
1.068704
1.0208612
1.0000007
1.0107395
1.0014594
1.0001266
1.0001172
1.000113
1.0381675
1.0180967
1.0000004
1.0013399
1.0253438
2.0481119
1.6484992
1.0019208
1.0587327
1.0022048
1.0006247
1.0031759
1.1292586
1.7714051
1.3723396
1.0019199
1.0082502
1.0022183
1.0047576
1.1534508
1.1672706
1.9348458
1.1019972
1.0013976
1.0014652
1.0079451
1.008841
1.2785958
1.1266363
1.7605506
1.1247694
1.00014
1.0016635
1.0000027
1.000628
1.0184539
1.1649217
1.4322159
1.0946427
1.0008216
1.0005095
1.0000699
1.0000013
1.0176309
1.1011993
1.4230239
1.0339218
1.0012017
1.0014024
1.001678
1.0000139
1.0146609
1.0380617
1.4045821
1.0004387
1.000495
1.0121445
1.003135
1.0000007
1.0102826
1.0415449
1.2252791
1.000113
1.0001103
1.0024913
1.0013415
1.0000006
1.0013406
1.3058632
2.1904575
1.7623604
1.112601
1.0212452
1.0018913
1.0029702
1.0112032
1.3135539
2.1904087
1.8051667
1.0000141
1.0020801
1.0021893
1.0036527
1.1420454
1.33148
2.1902606
2.0434106
1.0000079
1.0018681
1.0088261
1.0088416
1.1290957
1.3477806
2.1902668
1.7571616
1.0000058
1.0035073
1.0000027
1.0028302
1.019784
1.2873924
2.1900933
1.4585021
1.0001323
1.0000032
1.0000026
1.0000011
1.0214231
1.2724265
2.1898722
1.2959585
1.0003001
1.0000244
1.0001273
1.0000446
1.0010326
1.1292113
2.189223
1.182749
1.0000697
1.0001531
1.0002262
1.0000087
1.0006389
1.1546687
2.162493
1.1165032
1.0000054
1.0001776
1.0000876
1.000001
1.1158848
1.6917428
2.1904578
1.7545761
1.0956467
1.0235644
1.0118504
1.0121232
1.057481
2.1801151
2.1904574
1.9730363
1.0000079
1.0032242
1.002878
1.0023063
1.0521229
1.9989443
2.1904379
1.8948405
1.0000052
1.0021012
1.0071375
1.008841
1.066392
2.1862554
2.1904186
1.9026055
1.0000023
1.0035532
1.0005227
1.0028782
1.0423245
2.1703566
2.1903229
1.7704094
1.0000015
1.0001348
1.0000013
1.0000011
1.067946
2.0738803
2.1901372
1.7063558
1.0000015
1.0000024
1.0000185
1.0000702
1.0557553
1.8361558
2.1899437
1.4923545
1.0000017
1.0000968
1.0001136
1.0002064
1.0502202
1.6212812
2.189233
1.2363054
1.0000036
1.0001942
1.000118
1.0000011
1.1229444
1.8415945
2.1904578
1.8614809
1.0397749
1.0169062
1.0159872
1.0140496
1.0608839
2.190444
2.190448
1.9681198
1.0000072
1.0056481
1.0026911
1.0017525
1.0091857
2.1904267
2.1904207
1.8724951
1.0000043
1.0024448
1.0057734
1.0085546
1.1484217
2.1903948
2.1904298
1.8783171
1.0000015
1.0035467
1.0015478
1.0026458
1.1606786
2.1903896
2.190419
1.831169
1.0000015
1.0000014
1.0000014
1.0000013
1.1914636
2.1903213
2.1902755
1.7019524
1.0000015
1.0000015
1.0000161
1.0000197
1.1507373
2.1900657
2.1899126
1.4767555
1.0000015
1.0001592
1.0001791
1.0002651
1.1628905
2.0088517
2.0909973
1.2213613
1.0000017
1.0004362
1.0002431
1.0005153
1.0081145
1.5184897
2.1904578
1.640424
1.0051517
1.0090122
1.0159853
1.0094874
1.0337089
1.778178
2.1904568
1.6869909
1.0051173
1.0130617
1.002071
1.000983
1.0109836
1.7542428
2.1904488
1.711835
1.0007247
1.0016649
1.0040246
1.0063468
1.0146246
2.0008002
2.1904382
1.706043
1.0000015
1.0027191
1.0032823
1.003193
1.0151048
2.0138952
2.1903407
1.65269
1.0000015
1.0000014
1.0000014
1.0000014
1.0927608
1.9000353
2.1901763
1.54851
1.0000015
1.0000015
1.0000051
1.0000014
1.0674095
1.9390877
2.1900175
1.4143036
1.0000015
1.0000896
1.0002465
1.0001593
1.1175448
1.6830381
2.143212
1.3071605
1.0000039
1.0005406
1.0004485
1.0017353
1.0007608
1.1318175
1.6968487
1.1593001
1.0019376
1.0094626
1.0115955
1.0017807
1.0084395
1.1454591
1.9254332
1.1547906
1.0015604
1.0159608
1.0019189
1.0004013
1.0091053
1.117989
2.0956978
1.1766149
1.0000015
1.0010899
1.0030393
1.0051202
1.0098613
1.1436295
2.136456
1.0989883
1.0000015
1.0016028
1.0049124
1.0051973
1.009538
1.2204172
2.1901762
1.155397
1.0000015
1.0000015
1.0000014
1.0000014
1.008718
1.347364
2.1900142
1.2251317
1.0000015
1.0000022
1.0000035
1.0002762
1.0277525
1.353879
1.9257941
1.2172449
1.0000017
1.0000645
1.0003845
1.0001601
1.0416381
1.2694699
1.7905897
1.1411606
1.0000197
1.0005602
1.0008082
1.0006771
1.0001751
1.0005526
1.0269407
1.001325
1.0019443
1.0081622
1.0058259
1.0003532
1.0001788
1.0066441
1.1138638
1.0012523
1.0016023
1.0159642
1.0019317
1.000353
1.0772255
1.0290466
1.1568904
1.0008546
1.0000015
1.0000386
1.0027974
1.0037928
1.0532921
1.0498022
1.0965232
1.0007851
1.0000015
1.0008758
1.0069425
1.0072828
1.0103111
1.0360957
1.3099336
1.0093413
1.0000015
1.0000015
1.0000015
1.0000014
1.0000229
1.1849142
1.4936441
1.0493165
1.0000015
1.0000032
1.0000015
1.001207
1.0013126
1.2402447
1.1084879
1.0564689
1.0000016
1.000035
1.0004797
1.0032261
1.0091529
1.0578097
1.0895441
1.0044983
1.0000209
1.0014259
1.0014124
1.0004138
1.0001733
1.0005297
1.0014852
1.0008944
1.0024968
1.0061777
1.0037088
1.0003516
1.0001743
1.0074285
1.0011545
1.0002093
1.0067466
1.0160141
1.0011217
1.0003522
1.1101757
1.0385041
1.0000377
1.0000015
1.0000015
1.0000015
1.0021494
1.0015014
1.1012787
1.0935505
1.0021391
1.0000623
1.0000015
1.0004529
1.0073373
1.0073362
1.0172214
1.06258
1.0095645
1.0010239
1.0000015
1.0000015
1.0000074
1.0001142
1.0011656
1.2356934
1.016453
1.0011816
1.0000015
1.0000015
1.0000029
1.0013555
1.0033126
1.2384139
1.009835
1.0001175
1.0000018
1.0002621
1.0004344
1.0038629
1.0075874
1.0583098
1.0042959
1.004658
1.0031746
1.0112253
1.0047373
1.0019187
1.0001286
1.0016589
1.0042243
1.0019551
1.002484
1.0049641
1.0026005
1.0000369
1.0058142
1.0183819
1.001378
1.0002641
1.0181778
1.0198145
1.0147609
1.0064746
1.1138513
1.0757539
1.0000016
1.0000015
1.0000015
1.0000015
1.0017331
1.0015917
1.1138937
1.1138511
1.0000042
1.0000056
1.0000215
1.0000015
1.0073319
1.0073369
1.0159391
1.0608971
1.0002032
1.0000057
1.0000362
1.0000015
1.0003469
1.0013468
1.0040197
1.2201568
1.0000291
1.00001
1.0000018
1.0000016
1.0000036
1.0001808
1.009474
1.202624
1.0072065
1.0002676
1.0002515
1.0024968
1.0002369
1.0031822
1.0069801
1.0609026
1.0069135
1.0011398
1.0021552
1.0116652
1.0033541
1.0073146
1.0001282
1.0016738
1.0053423
1.002404
1.0009907
1.0028883
1.0015694
1.0000005
1.0049445
1.0208691
1.0026039
1.0006375
1.0198289
1.0198348
1.0198327
1.0198338
1.0845115
1.0859212
1.0011917
1.000003
1.0000015
1.0000042
1.0025458
1.0073285
1.126348
1.0877218
1.000005
1.0000049
1.0000365
1.0000031
1.0039477
1.0045984
1.0127281
1.0290511
1.0000084
1.0000052
1.0004334
1.0004275
1.0006253
1.001219
1.0011326
1.0742404
1.0000079
1.0000058
1.0005812
1.0000113
1.0000042
1.0000212
1.0009302
1.072467
1.0055197
1.0003788
1.0001537
1.0016068
1.0000055
1.0000132
1.0026286
1.0332354
1.0122345
1.0007134
1.0002467
1.0045015
1.0006567
1.0047213
1.0000882
1.0006431
1.0053422
1.0016833
1.0000179
1.0004294
1.0001993
1.0000005
1.0003063
1.0038737
1.0020825
1.0006707
1.0198329
1.0198327
1.0198349
1.0198349
1.0219012
1.0858524
1.0046463
1.0001001
1.0007211
1.0008684
1.0036529
1.0093992
1.0421303
1.0391877
1.0006311
1.0000571
1.0000207
1.0000315
1.000369
1.0007186
1.0028764
1.0113248
1.0000069
1.0000054
1.0005208
1.0005453
1.0003203
1.00035
1.0215027
1.000053
1.0000499
1.0000067
1.0007179
1.000129
1.0007311
1.0005551
1.0267458
1.0012462
1.0027347
1.0003045
1.0001536
1.0001268
1.0029391
1.0008566
1.0034328
1.0042696
1.0120062
1.0008192
1.0000056
1.0000076
1.0031817
1.0008628
1.0001311
1.0000709
1.0030553
1.0002549
1
1
1.000086
1.0000005
1.0000442
1.0000806
1.0004527
1.00051
1.0083429
1.0117704
1.0198327
1.0073888
1.0032644
1.0150855
1.0069651
1.0001438
1.0005581
1.0006451
1.0024655
1.0044157
1.0027447
1.0043623
1.0042762
1.0003464
1.0000134
1.0000154
1.0000066
1.0003797
1.0015857
1.0032939
1.0002315
1.0001545
1.0002885
1.0000062
1.0000282
1.000137
1.0000654
1.0000699
1.0000203
1.0000075
1.0001825
1.007857
1.0054738
1.0008661
1.0490954
1.0000332
1.0004977
1.0000675
1.0000329
1.0002809
1.0265366
1.005509
1.0216503
1.0000345
1.0040866
1.0005752
1.0000051
1.0000056
1.0614138
1.010545
1.0000543
1.0000005
1.0001127
1
1
1
1.0000202
1.0000138
1.0000443
1.000344
1.000048
1.0000474
1
1.0030659
1.0049811
1.0000928
1.0000443
1.0014219
1.0035627
1.000731
1.0013707
1.0000063
1.0015882
1.0066081
1.0198776
1.0000523
1.0046924
1.0009546
1.0000063
1.0000062
1.0000063
1.0037352
1.01835
1.0000326
1.0019502
1.000312
1.0000135
1.0000061
1.0001107
1.0004405
1.0000326
1.000031
1.0000295
1.0000209
1.0000051
1.007902
1.0108859
1.0008197
1.0146825
1.0000326
1.000087
1.0000053
1.000005
1.0366873
1.0632228
1.0049449
1.0000345
1.0000335
1.0000584
1.0000955
1.000005
1.0158301
1.1859432
1.0317734
1.0000048
1.0000001
1
1
1
1.0000006
1.0000001
1.0000061
1.0062952
1.0349285
1.0012436
1
1.0000156
1.0028738
1.000008
1.0000001
1.0865518
1.1175983
1.0077413
1.0026768
1.0060826
1.0060019
1.0056787
1.0065906
1.0741155
1.1658973
1.0034716
1.0010842
1.0023967
1.0005482
1.0055431
1.0087722
1.0182692
1.0555724
1.0011409
1.0001465
1.0000051
1.0000056
1.0003633
1.0022114
1.061541
1.0073508
1.0000771
1.00003
1.000005
1.0095396
1.0040544
1.0002354
1.175416
1.003291
1.0000078
1.0000137
1.000005
1.0492097
1.0384673
1.0004511
1.2088694
1.0000076
1.0000064
1.000005
1.000005
1.0612446
1.1489977
1.0259907
1.0000021
1
1
1
1
1
1
1.0000004
1.010322
1.095545
1.0006264
1
1
1.0008514
1
1
1.0793386
1.284851
1.0100711
1.0021085
1.0058087
1.0096335
1.0090444
1.0042752
1.1053599
1.2861254
1.0091736
1.0016793
1.0101232
1.0090368
1.0111661
1.0088444
1.101717
1.2608732
1.0094438
1.0006409
1.0027773
1.0009876
1.0072329
1.0039658
1.2797104
1.2751129
1.003477
1.000169
1.000005
1.0030816
1.0016994
1.0003393
1.2858394
1.2793419
1.0015515
1.000005
1.000005
1.0246354
1.0050793
1.0002011
1.2852258
1.1491926
1.000371
1.000005
1.000005
1.0457753
1.0239354
1.0040217
1.0000001
1.0000067
1.0000005
1
1
1
1
1
1.0021424
1.0388609
1.0009431
1
1
1
1
1
1.052704
1.2717479
1.0175939
1.00087
1.0021987
1.0081305
1.0055258
1.0023702
1.0902293
1.2861105
1.0331001
1.004572
1.0102139
1.0111666
1.0111907
1.0070799
1.0783098
1.2861183
1.0310088
1.0039713
1.0109667
1.0102704
1.0112039
1.0038775
1.2039266
1.2860795
1.0470597
1.0010477
1.0019046
1.0028113
1.0042294
1.0003906
1.2860083
1.2860189
1.0289565
1.0000087
1.000005
1.0013834
1.0000404
1.0000383
1.28254
1.2860058
1.011763
1.0000049
1.0000611
1.0061078
1.0000404
1.0000085
1.0000002
1.0000014
1
1
1
1
1
1.0000013
1.0000001
1.0013743
1.000084
1
1
1
1.000032
1.0000509
1.0061428
1.0582454
1.0060595
1.0002111
1.0001937
1.0018587
1.0003352
1.0012856
1.0240432
1.1608474
1.0238443
1.0134257
1.0059347
1.010177
1.0091678
1.0041464
1.024785
1.2419927
1.0307595
1.0041206
1.0113037
1.0113282
1.0113426
1.0029475
1.0277169
1.2860178
1.0489686
1.0003915
1.0103738
1.0104286
1.0040389
1.000544
1.0504834
1.286003
1.0386392
1.0000049
1.0017036
1.0022697
1.0001513
1.0000234
1.0927997
1.2655766
1.0242129
1.0000049
1.0001189
1.0000134
1.0000077
1.0000083
1.0000001
1
1
1.0000001
1
1.0000742
1.0000003
1.0000008
1.0000015
1
1.0000001
1
1.0002835
1.0121477
1.000625
1.0000758
1.0000761
1.0000809
1.0000449
1
1.0003356
1.0004071
1.0014275
1.0002378
1.0001058
1.0101836
1.0101771
1.0111437
1.0008657
1.0048109
1.0164005
1.0013545
1.0006206
1.0276087
1.0177264
1.0000761
1.0085272
1.0112668
1.0183962
1.0008833
1.0018119
1.0545199
1.0238872
1.0000683
1.0113445
1.0113445
1.004388
1.0007889
1.0022209
1.0543946
1.0267449
1.0000667
1.0064966
1.0054518
1.0001732
1.0002734
1.0011291
1.0671043
1.0221048
1.0000206
1.0000805
1.0000084
1.0000072
1.0000252
1
1.0000004
1
1
1.0000013
1.0002512
1
1.0000006
1.0000011
1
1
1
1.0006042
1.015282
1.0001955
1.0000497
1.0000706
1.0000001
1
1
1.0009657
1.011635
1.007168
1.0000052
1.0000707
1.0005589
1.0085916
1.0000457
1.0008571
1.0008595
1.0215451
1.0001057
1.0008663
1.0006061
1.0057821
1.0242982
1.0016465
1.0033645
1.0215451
1.0000852
1.0056893
1.0007702
1.0017074
1.01265
1.0091363
1.0078583
1.0094708
1.0004607
1.0056496
1.0008373
1.0012518
1.0000158
1.0057828
1.0026638
1.0000509
1.0003917
1.0008989
1.0008488
1.0052682
1.0000144
1.000458
1.0000064
1.0000066
1.0001295
1.0000001
1.0000014
1
1
1
1.0000004
1
1.0000004
1
1.0000153
1.0000003
1
1.0000945
1.0056894
1.0001912
1.0000174
1.0003215
1.0000001
1.0000001
1.0001779
1.0005353
1.0127467
1.0195946
1.0000051
1.0071148
1.0007016
1.0049334
1.0359436
1.001555
1.0212897
1.0178733
1.0000051
1.0018547
1.0009688
1.0045093
1.1257963
1.002063
1.0117169
1.0200153
1.0000052
1.0092281
1.0010932
1.001287
1.1093205
1.0013461
1.0002102
1.0066926
1.000012
1.0063076
1.0008484
1.0064569
1.0439227
1.0020554
1.0000066
1.0000066
1.0001813
1.0023556
1.0008488
1.0091305
1.0200072
1.002304
1.0000065
1.0000066
1.0001241
1.0000001
1.000003
1.0000001
1
1
1
1
1
1
1.0000336
1.000002
1
1
1.0004379
1.0003185
1.0000596
1.0014619
1.0000001
1.0000245
1.0018138
1.000801
1.0152201
1.0359494
1.0002758
1.0129211
1.0010462
1.001263
1.0842119
1.0013892
1.1348064
1.0223286
1.0000051
1.0055848
1.004331
1.0029178
1.1323914
1.005165
1.1197098
1.0145721
1.0000173
1.0096686
1.0047431
1.002889
1.1328915
1.0013198
1.029876
1.0565531
1.000199
1.0011035
1.0388077
1.0305794
1.133236
1.0012797
1.0376281
1.0192175
1.0000391
1.0044912
1.0162289
1.0200134
1.1130185
1.0012437
1.025534
1.0104839
1.0000333
1
1.0000006
1
1
1
1
1
1
1.000009
1.0000359
1.000005
1.0000002
1
1.0015785
1.0010878
1.0000607
1.0005975
1.0000035
1.0000059
1.0002428
1.0001948
1.0643811
1.0329201
1.0010753
1.0129173
1.0033169
1.0003379
1.0384119
1.0008314
1.1388246
1.0266382
1.0001059
1.0197917
1.0184755
1.0013651
1.1140956
1.0178975
1.1388321
1.0179536
1.0000179
1.0123384
1.0406668
1.0050476
1.1294851
1.0541744
1.1326223
1.0723003
1.0000033
1.0267234
1.0662946
1.023125
1.1369586
1.0705196
1.139417
1.0680944
1.0000031
1.0174236
1.0608946
1.0232366
1.1370903
1.030194
1.1325928
1.0649942
1.0000031
1
1
1
1
1
1
1
1
1.000066
1.0000425
1.0000049
1
1
1.0000885
1.0000872
1.0000042
1.0006044
1.000194
1.0000085
1.0000022
1
1.0253902
1.0077247
1.0002381
1.0123284
1.0029907
1.0000025
1.0028935
1.0000006
1.0897137
1.0206069
1.000027
1.0281052
1.0314747
1.0010738
1.0416768
1.0602262
1.1291302
1.0155634
1.0000722
1.0382581
1.0663078
1.0025069
1.080258
1.1393453
1.1394285
1.0421222
1.0000034
1.0662946
1.0663037
1.0057629
1.1207654
1.1394171
1.1394693
1.0548555
1.0000033
1.0614351
1.0662946
1.0120207
1.1372464
1.1374379
1.1394625
1.0651729
1.0000031
1
1
1
1
1
1.0000002
1
1
1.0000885
1.0000842
1.0000069
1
1
1.0000011
1.0000001
1
1.0006621
1.0005396
1.0000506
1
1
1.0013426
1.0000063
1.0000025
1.0038805
1.0012435
1.0000003
1
1.0001724
1.0198414
1.0029926
1.0000142
1.0350077
1.0263777
1.0009578
1.0015805
1.0232313
1.0892214
1.0153084
1.0004242
1.0663074
1.0663175
1.0023761
1.0141602
1.0931321
1.1394692
1.0132449
1.0003548
1.0662915
1.066317
1.0208997
1.0550184
1.1355932
1.1394626
1.0115352
1.0024579
1.0662753
1.0662936
1.0160047
1.1063637
1.1195827
1.1394668
1.0299255
1.0001692
1
1
1
1
1
1.0000004
1
1
1.0000579
1.0000648
1.0000057
1
1.0000002
1.0000022
1.0000008
1
1.0013635
1.0005367
1.0000973
1
1
1.0000002
1.000001
1.0000012
1.0006519
1.0006638
1.0000001
1
1.0002923
1.0006681
1.0000007
1.0000006
1.0172522
1.0166424
1.0005685
1.0000001
1.0005786
1.0562531
1.008571
1.0005207
1.0624416
1.066317
1.0050151
1.0000139
1.0096918
1.1385444
1.0075202
1.0048899
1.066317
1.0663179
1.0636105
1.0043161
1.0150555
1.1395124
1.0007826
1.0086521
1.0662945
1.066317
1.0293819
1.02178
1.0152519
1.1394625
1.0027778
1.0006381
1
1
1
1
1
1.0000004
1
1
1.0002592
1.0000034
1.0000028
1
1.0000006
1.0000059
1.0000015
1
1.0028334
1.0003347
1.0001045
1
1
1.0000036
1.0000056
1.0000012
1.000652
1.0007168
1.0000002
1.000012
1.0000984
1.0000007
1.0000006
1.0000006
1.0058718
1.0037138
1.0003644
1.0000033
1.0000779
1.0361631
1.0020512
1.0004423
1.0296643
1.0497967
1.0129531
1.0001652
1.0001343
1.1227437
1.0079777
1.0059835
1.0434666
1.066317
1.0556586
1.0002745
1.0000181
1.1395994
1.0007531
1.0086507
1.0502626
1.066312
1.029885
1.0001758
1.0000167
1.1380235
1.0007471
1.0020852
1
1
1
1
1
1.0000002
1
1
1.00017
1
1.0000001
1
1.0000014
1.0000128
1.0000025
1
1.0046313
1.0000171
1.0000526
1
1.0000051
1.0000141
1.0000118
1.0000006
1.0006519
1.0007453
1.0012146
1.0001061
1.0000013
1.0000006
1.0000006
1.0000006
1.0050333
1.0007909
1.0000519
1.0000086
1.0003232
1.0255246
1.0002096
1.0000859
1.0129189
1.0079552
1.0082085
1.0002065
1.0010109
1.0891258
1.0081478
1.0021182
1.0104175
1.0486209
1.0145565
1.0002412
1.0000167
1.139878
1.0008569
1.0066824
1.0153825
1.0662856
1.0201675
1.0003538
1.0000162
1.1414349
1.0007307
1.0032703
1
1
1
1
1
1.0000002
1
1
1
1
1
1
1.0000017
1.0000126
1.0000023
1
1.0045676
1
1.0000002
1
1.0000066
1.0000139
1.0000105
1.0000001
1.0007117
1.0005094
1.0020411
1.0001576
1.0000009
1.0000008
1.0000009
1.0000007
1.0027416
1.0003647
1.0006194
1.0001159
1.0007652
1.0372618
1.0000009
1.0000062
1.0102787
1.0002938
1.0007437
1.0000527
1.0005632
1.0983991
1.0107869
1.0001435
1.0033655
1.0117207
1.0000693
1.0000525
1.0000162
1.1415935
1.0007307
1.0009274
1.0032651
1.031764
1.0032609
1.0001491
1.0000162