/*--------------------------------*- C++ -*----------------------------------*\
  =========                 |
  \\      /  F ield         | OpenFOAM: The Open Source CFD Toolbox
   \\    /   O peration     | Website:  https://openfoam.org
    \\  /    A nd           | Version:  13
     \\/     M anipulation  |
\*---------------------------------------------------------------------------*/
FoamFile
{
    format      ascii;
    class       volScalarField;
    location    "0.11";
    object      rho;
}
// * * * * * * * * * * * * * * * * * * * * * * * * * * * * * * * * * * * * * //

dimensions      [1 -3 0 0 0 0 0];

internalField   nonuniform List<scalar> 
51200
(
900
900
900
900
900
900
900
900
900
900
900
900
900
900
900
900
900
900
900
900
900
900
900
900
900
900
900
900
900
900
900
900
900
900
900
900
900
900
900
900
900
900
900
900
900
900
900
900
900
900
900
900
900
900
900
900
900
900
900
900
900
900
900
900
900
900
900
900
900
900
900
900
900
900
900
900
900
900
900
900
900
900
900
900
900
900
900
900
900
900
900
900
900
900
900
900
900
900
900
900
900
900
900
900
900
900
900
900
900
900
900
900
900
900
900
900
900
900
900
900
900
900
900
900
900
900
900
900
900
900
900
900
900
900
900
900
900
900
900
900
900
900
900
900
900
900
900
900
900
900
900
900
900
900
900
900
900
900
900
900
900
900
900
900
900
900
900
900
900
900
900
900
900
900
900
900
900
900
900
900
900
900
900
900
900
900
900
900
900
900
900
900
900
900
900
900
900
900
900
900
900
900
900
900
900
900
900
900
900
900
900
900
900
900
900
900
900
900
900
900
900
900
900
900
900
900
900
900
900
900
900
900
900
900
900
900
900
900
900
900
900
900
900
900
900
900
900
900
900
900
900
900
900
900
900
900
900
900.00316
900.02118
900
900
900.01779
900.00262
900
900
900.00039
900.00245
900
900
900.0021
900.00028
900
900
900
900
900
900
900
900
900
900
900
900
900
900
900
900
900
900
900
900
900
900
900
900
900
900
900
900
900
900
900
900
900
900
900
900
900
900
900
900
900
900
900
900
900
900
900
900
900
900
900.01553
900.02357
900
900
900.01962
900.013
900
900
900.00066
900.0227
900
900
900.01941
900.00085
900
900
900.0004
900.00692
900
900
900.00761
900.00055
900
900
900.00011
900
900
900
900
900
900
900
900
900
900
900
900
900
900
900
900
900
900
900
900
900
900
900
900
900
900
900
900
900
900
900
900
900
900
900
900
900
900
900.0019
900.00429
900.00986
900
900
900.00871
900.00544
900.00002
900
900.00334
900.01796
900
900
900.01474
900.00015
900
900
900.0028
900.0121
900
900
900.01161
900.00018
900.00064
900.00077
900.00081
900.0036
900
900
900.00421
900.00292
900.0012
900.00168
900
900
900
900
900.00009
900.00113
900
900.00101
900
900
900
900
900
900
900
900.0016
900
900
900
900
900
900
900
900.00307
900.00076
900
900
900
900
900
900
900.0002
900.0002
900.00003
900
900
900.00003
900.00005
900.00003
900.05379
900.00019
900.00028
900
900
900.00028
900.00137
900.29009
900.00134
900.00194
900.00355
900
900
900.00149
900.0074
900.00065
900.0121
900.00286
900.00379
900
900
900.00431
900.00221
900.0011
900.01047
900.00113
900.00217
900
900
900.00201
900.0002
900.00197
900.00506
900.00022
900
900
900
900
900.00051
900.00346
900.00602
900.00037
900
900
900
900
900.00332
900.00352
900.00591
900.00172
900
900
900
900
900.00137
900.00272
900.00015
900.00013
900.00003
900.03927
900.03937
900.00002
900.00009
900.00007
900.15218
900.00003
900
900
900
900
900.00003
900.14014
900.01281
900.00012
900.00012
900
900
900
900.00153
900.00278
900.02118
900.00111
900.00193
900
900
900.0015
900.00007
900.00519
900.00711
900.00303
900.00053
900
900
900.00084
900.00003
900.00381
900.00367
900.0059
900.00003
900
900
900
900.00001
900.00298
900.00607
900.00163
900
900
900
900
900.00089
900.00355
900.00605
900.00008
900
900
900
900
900.00326
900.00354
900.00027
900.00015
901.71563
900.30711
900.30914
901.72127
900.0001
900.00018
901.69612
900.00021
900.30854
900
900
900.30446
900.00015
901.12831
900.0503
900.1376
900
900
900
900
900.00138
900.05669
900.01661
900.14087
900.00006
900
900
900
900.12552
900.00656
900.01664
900.08382
900.00012
900
900
900.00005
900.09477
900.00992
900.00083
900.00079
900.0001
900
900
900.00008
900.00416
900.00117
900.0035
900
900
900
900
900
900.00001
900.00108
900.00257
900
900
900
900
900
900.00065
900.0021
900.00044
900.00026
908.39613
900.56437
900.56226
908.43312
900.00018
900.00036
901.88327
900.00044
902.5186
900
900
902.54075
900.00036
902.36389
900.3216
900.04356
900
900
900
900
900.06524
900.09111
900.0217
900.14709
900.00017
900
900
900.00001
900.37054
900.0188
900.02526
900.11336
900
900
900
900
900.24547
900.03654
900.00087
900.00617
900.00003
900
900
900.00008
900.05828
900.00751
900.00514
900
900
900
900
900
900
900.0011
900.00255
900
900
900
900
900
900
900.00014
900.00056
900.00044
916.15727
900.38339
900.37312
916.19449
900.00036
900.00055
901.07441
900.00056
908.34517
900
900
908.4499
900.00055
901.89045
900.38302
900.03141
900.18533
900
900
900.23906
900.37429
900.25604
900.03144
900.15491
900.00018
900
900
900.00015
900.37691
900.00922
900.03084
900.08615
900
900
900
900
900.12684
900.00888
900.00071
900.00056
900
900
900
900.00002
900.00006
900.00008
900.00505
900
900
900
900
900
900
900.00002
900.00185
900
900
900
900
900
900
900.00001
900.00067
900.00056
917.52505
900.22719
900.22174
917.476
900.00055
900.00069
900.96081
900.00067
912.66832
900
900
912.82783
900.00069
901.36695
901.31685
900.03313
902.27256
900
900
902.39594
900.0705
901.3823
900.02053
900.36755
900
900
900
900.00002
900.21351
900.02707
900.01929
900.18033
900
900
900
900.00085
900.25698
900.05331
900.00715
900.0002
900
900
900
900.00031
900.26062
900.06144
900.00404
900
900
900
900
900.00001
900.07557
900.02666
900.00016
900
900
900
900
900
900.00003
900.00196
900.00077
900.00067
917.60095
900.89618
900.91939
917.55043
900.00069
900.0008
900.82896
900.00077
913.92467
900
900
913.91562
900.0008
900.75495
901.13112
900.08542
905.22693
900
900
905.26994
900.3044
900.77866
900.0371
900.83653
900
900
900
900.00001
900.11379
900.21129
900.04236
900.41938
900
900
900
900.00001
900.00217
900.32252
900.09222
900.00004
900
900
900
900
900.332
900.42621
900.05893
900
900
900
900
900
900.65572
900.21347
900.06604
900
900
900
900
900
900.09218
900.05691
900.00086
900.00077
918.05802
902.04204
902.07019
918.14769
900.0008
900.00089
900.70896
900.00086
914.56206
900
900
914.58913
900.00089
900.75935
900.50423
900.04517
907.36799
900
900
907.34942
900.49838
901.01198
900.32058
901.56281
900.07985
900
900
900.04248
900.16744
900.34361
900.31703
900.78466
900
900
900
900.00003
900.00327
900.25388
900.08342
900.00007
900
900
900
900
900.15474
900.61212
900.11599
900.00001
900
900
900
900
901.21379
900.41913
900.11536
900.00012
900
900
900
900
900.30372
900.08307
900.00098
900.00086
921.33542
902.68639
902.70621
921.23703
900.00089
900.001
901.21261
900.00098
916.52883
900
900
916.49636
900.001
900.94272
901.95765
900.02233
908.51249
900
900
908.63662
900.95417
900.83432
900.12771
901.97041
900.22186
900
900
900.17577
900.34744
900.24869
900.11126
901.16449
900
900
900
900.00006
900.0054
900.24686
900.05456
900.01882
900
900
900
900
900.09165
900.66038
900.11868
900.00006
900
900
900
900
901.37275
900.45072
900.08123
900
900
900
900
900
900.35323
900.08336
900.00118
900.00098
925.44187
903.23102
903.27336
924.88587
900.001
900.00112
902.60399
900.00118
919.97753
900
900
919.49412
900.00112
901.22011
904.91886
900.04529
910.2788
900
900
910.26393
900.77708
901.72021
900.14562
902.91165
900.36127
900
900
900.32418
900.38392
900.72839
900.15116
901.72868
900
900
900
900
900.00998
900.2325
900.05739
900.1326
900
900
900
900
900.02008
900.93278
900.08573
900.00001
900
900
900
900
901.56422
900.6566
900.02193
900
900
900
900
900
900.43964
900.20175
900.00142
900.00118
926.86978
904.54876
904.56927
926.32819
900.00112
900.00128
903.0964
900.00142
922.36367
900
900
921.76741
900.00128
901.86946
904.75983
900.41241
912.67686
900
900
912.25504
900.70056
904.10737
900.18263
903.72562
900.85065
900
900
900.75284
900.45638
902.8549
900.19567
901.96642
900.0002
900
900
900
900.01466
900.04383
900.19084
900.04617
900
900
900
900
900.1971
901.10204
900.06301
900
900
900
900
900
901.93795
901.15517
900.00087
900
900
900
900
900
900.90911
900.43305
900.00169
900.00142
928.65989
907.22467
907.12265
927.91254
900.00128
900.00163
904.42338
900.00169
924.21689
900
900
924.02942
900.00163
907.19039
902.56504
904.33541
915.16901
900
900
914.60452
900.89244
903.26369
900.20683
903.85345
901.87028
900
900
901.73519
900.4618
900.82236
900.20232
900.97572
900
900
900
900
901.74772
900.67447
900.6533
900.00241
900
900
900
900
903.10983
900.98422
900.27272
900
900
900
900
900.00009
902.05966
900.78396
900.25161
900
900
900
900
900.00001
900.31319
900.17284
900.00193
900.00169
931.53304
910.69295
910.70104
932.6658
900.00163
900.00213
903.62506
900.00193
926.38417
900
900
927.76006
900.09199
910.34646
903.89426
901.46469
917.17023
900
900
917.59983
900.47659
901.34297
900.24118
905.09015
903.17945
900
900
903.43273
902.85959
901.22068
900.37905
903.26282
900.00004
900
900
900.00226
903.12378
901.04283
901.15336
900.0596
900
900
900
900
903.11724
900.51333
900.7457
900.00001
900
900
900
900.00004
901.11922
900.13615
900.67753
900
900
900
900
900
900.00484
900.00134
900.00214
900.00193
933.3225
914.43594
915.45537
932.82627
900.00213
900.00248
904.31195
900.00214
928.66064
900
900
932.55357
900.00249
906.30342
903.84057
901.86472
919.75017
900
900
923.06063
900.43003
901.99186
900.28234
905.14424
904.94057
900
900
905.83315
905.43341
901.29611
900.90486
903.46666
900.00291
900
900
900
903.06516
903.11667
901.93816
900.04464
900
900
900
900.00001
900.70618
900.83922
901.64912
900.00001
900
900
900
900
900.01996
900.75973
901.87721
900
900
900
900
900
900
900.47009
900.00249
900.00214
934.04321
919.14051
923.02979
932.87553
900.00248
900.00282
909.40388
900.00249
931.65086
900
900
933.07651
900.00973
908.50195
900.50337
900.96529
923.40596
900
900
928.68029
900.98085
902.56079
900.32773
903.58903
907.14988
900
900
910.15536
903.12746
901.61942
902.81869
901.2201
900.00001
900
900
900
901.30768
903.51883
904.55284
900.00129
900
900
900
900
900.0018
901.41591
903.96869
900.00001
900
900
900
900
900.00002
901.70755
903.83702
900
900
900
900
900
900.12441
901.96199
900.00313
900.00249
934.95121
925.12
928.71755
931.45294
900.00282
900.0033
916.98472
901.69816
932.90803
900
900
933.23968
900.0033
912.87161
900.62589
901.66646
926.56131
900
900
931.20413
900.60215
901.8633
900.92979
901.60899
910.2746
900
900
915.67766
901.90204
902.24061
905.50055
900.16927
900
900
900
900.13604
900.42854
903.51516
905.46599
900.1812
900
900
900
900
900.23794
902.11283
903.85302
902.34101
900
900
900
900
902.4681
902.84587
903.54237
902.08576
900
900
900
900
902.65024
902.18573
900.00578
900.00313
936.71752
930.33205
930.79558
937.0251
902.39524
912.76925
918.59449
901.71879
931.3515
900
900
935.10638
900.95631
905.53679
900.8043
901.34171
926.42363
900
900
930.78252
901.37988
903.82746
901.91889
902.63711
913.9928
900
900
917.64762
902.0473
906.92606
905.50425
904.34631
900.26572
900
900
900.72985
900.4836
902.58197
905.3929
902.5655
900.00003
900
900
900
902.42339
901.63011
902.30132
902.04855
900
900
900
900
905.39872
902.05207
901.53193
901.05634
900
900
900.00001
900
902.36022
901.014
900.0042
900.00381
939.98475
935.28352
935.36042
951.13314
907.51559
908.00572
912.0992
900.01247
930.28925
900
900
946.6847
901.32667
901.33959
903.42899
900.46718
925.3383
900
900
933.63906
903.02233
905.69763
902.04694
907.22877
915.38874
900
900
918.09245
903.01906
914.68841
905.50233
904.22918
900.94405
900
900
901.04609
901.51312
901.5864
905.30825
901.05708
900.00008
900
900
900
904.40479
901.71282
901.72257
900.26798
900
900
900
900
905.80705
902.11983
902.27811
900
900
900
900.00003
900.00001
901.54601
900.70014
900.00445
900.0042
946.36994
942.88134
951.0674
951.13254
900.98115
900.2822
908.4156
900.00445
933.38164
900
901.97125
951.12234
900.31262
903.95533
908.16114
904.66525
925.69143
900
900.6969
945.49514
906.32323
908.48549
902.1149
906.33756
915.0332
900
900
923.71434
905.42398
905.54518
905.32609
902.22539
901.236
900
900
901.22154
901.39162
902.57389
905.3294
900.03537
900
900
900
900
902.99036
902.62756
903.35409
900.00004
900
900
900
900
907.40084
903.79446
904.81887
900
900
900
900.00005
900.00004
901.61908
901.18705
900.00474
900.00445
953.49238
951.26539
960.53822
950.90811
900.26771
900.24813
909.85786
900.00474
946.81458
900.00028
904.51265
951.00466
900.24606
906.74376
912.53635
907.21736
931.41382
900.00656
902.57794
950.84013
907.21994
912.0969
902.16934
904.46131
915.53262
900
900.01357
937.1962
905.23108
903.3063
903.69788
900.34758
900.96296
900
900
903.22756
901.47787
903.00667
905.30983
900.02764
900.00009
900
900
900.00013
905.89758
906.99656
905.29778
900.15576
900
900
900
900
909.62624
903.8986
905.11466
901.83246
900
900.00003
900.00004
900.0002
901.98651
901.28419
900.00504
900.00474
954.88075
959.31655
960.7264
943.337
907.87702
900.22757
910.08845
900.00868
954.82355
901.14097
918.70378
941.98516
900.21519
907.06741
921.23607
903.77513
944.01749
900.0167
901.4691
950.76163
903.78754
912.22873
902.19198
904.77873
919.12487
900
900.00247
937.76967
905.05361
905.91489
903.92893
907.7871
901.09172
900
900
903.82156
910.53475
902.66994
904.76462
907.04677
900
900
900
900.00002
915.65716
906.37834
902.93041
904.31218
900
900
900
900.0002
909.65369
904.32627
903.04111
903.85625
900
900.00009
900.00002
900.00026
901.58436
901.25026
900.02412
901.86159
957.06123
960.71309
960.7264
941.78526
911.21791
900.2175
904.72782
900.07997
951.28644
930.36035
952.62795
915.73265
900.20562
903.5298
916.51513
900.21152
949.29414
903.48273
906.9279
949.80157
901.78204
912.26042
916.79652
912.48725
930.83448
900.1
900.00008
942.13593
910.06642
912.3314
902.76384
912.27133
903.85105
900
900
912.10614
916.9289
902.31855
902.73699
905.81827
900.00001
900
900.00003
900.00004
916.07459
903.88306
900.91446
903.38861
900
900
900
900.00001
907.97959
902.62369
900.69886
902.36008
900.00004
900.00007
900.00001
900.00027
900.80152
900.5505
902.79413
917.71966
951.1687
960.69721
952.70487
943.09942
916.60472
900.21214
901.61707
900.11495
940.72977
960.55684
960.41591
917.85148
900.20353
900.38994
909.95341
902.79373
949.15475
920.27081
919.8927
948.59582
902.20843
910.7633
918.07549
912.37574
947.24995
901.58076
900.00089
946.04637
914.93889
914.9297
914.76723
910.50844
920.40833
900.20527
900.00034
922.56536
917.01856
904.35836
906.13989
905.66842
900.25556
900.00002
900.00019
900.14068
910.45842
901.50077
901.79174
902.83015
900.00001
900
900
900.00106
903.15899
900.53782
901.49339
901.01477
900.00001
900.00002
900.00001
900.00012
900.19995
900.50589
904.35634
940.34671
930.37996
960.50633
950.7567
944.22472
922.58175
900.20118
900.80674
911.96854
922.21155
960.51411
960.45055
929.91608
900.20121
900.20128
908.83555
902.20187
945.4144
950.62013
952.6346
953.02797
907.56269
903.23127
918.07549
904.73011
947.25387
909.24725
906.44138
932.52578
915.86434
914.39516
916.63644
923.08733
923.34122
900.30597
900.00039
918.01515
911.7004
914.03199
911.05626
914.17588
900.18761
900.00013
900.00003
900.00038
903.1658
902.00328
906.36264
905.15214
900.0034
900
900
900.00091
900.29167
903.63359
903.82554
901.05457
900.00011
900
900
900
900.15638
901.42487
913.05864
943.36467
920.86354
959.61358
948.20418
936.89959
934.53629
901.59711
900.33597
919.49659
919.81532
960.25139
960.39363
924.77058
900.60699
900.20118
903.29269
901.68914
934.60828
960.67629
960.55528
958.91322
910.48932
901.46594
909.32787
907.90462
947.22591
925.77655
932.86299
921.14757
917.31893
913.40303
908.15339
922.83912
914.48827
900.11948
900.88885
909.24142
902.16379
915.95714
911.21253
921.72472
900.00143
900.00007
900.00051
900.00004
900.4006
908.05684
909.61364
909.32433
900.00271
900
900.00001
900.00003
900.00004
908.15486
903.23652
901.07874
900.00039
900
900
900
900.25139
904.00347
931.52006
945.32544
920.91073
959.96442
949.22939
924.43304
940.26876
907.7465
900.29975
925.04402
921.34627
957.44738
940.04134
920.1316
904.81359
900.20261
900.28446
901.38275
920.17887
960.78336
960.72234
960.53357
907.01606
904.1043
900.53532
910.88006
939.80114
937.85209
960.64457
940.57843
917.72155
916.05226
902.29342
922.79378
902.8708
901.3563
919.82803
912.29805
900.52809
916.02132
906.42683
918.27351
900.00076
900.00017
900.01735
900.00046
900.31618
913.9278
909.72521
909.36168
900.00195
900
900.00013
900.00004
900.326
907.51376
902.25254
900.94325
900.0006
900
900
900
900.60227
904.36985
940.86439
945.35246
932.87727
960.74537
942.64973
928.23057
940.97222
918.09199
905.57719
936.93094
922.42993
960.34529
934.19915
927.92922
925.99199
900.21343
900.27548
902.94247
918.80945
960.78775
960.78338
946.56205
906.47412
906.44655
900.26285
907.51193
926.73236
956.32582
960.72234
949.26282
912.67664
916.02132
902.12134
920.63083
900.00113
906.97216
934.59482
919.32142
905.05221
915.6682
901.81042
907.33737
900.00071
900.00607
900.89237
900.11856
900.75109
907.91358
903.9923
904.94119
900.00095
900.00001
900.00468
900.00005
903.37577
904.64583
902.45736
900.21063
900.00049
900
900.00018
900.00002
900.98489
903.03656
925.69121
945.96487
959.58253
960.7652
937.52616
938.93302
940.9593
927.33829
903.67311
942.07441
926.7153
960.78775
934.82804
928.02888
940.95254
900.22798
900.26486
915.8816
936.55864
960.78997
959.83336
932.38914
910.16438
902.2552
900.25333
907.97657
932.47626
960.78757
960.70734
955.71722
904.0311
912.23331
900.98416
906.42674
901.55928
920.76548
935.95954
927.36116
909.73223
911.22998
900.13917
901.94082
900.00034
900.00097
900.31966
901.53667
902.57131
901.37674
900.56988
900.76065
900.00026
900.00001
900.00009
900.00034
903.9055
901.60123
901.99164
900.00002
900.00004
900
900.00014
900.0078
900.95359
901.35361
923.21076
946.33855
960.34926
960.27552
932.7997
939.40768
933.67722
938.29691
906.24261
929.2656
942.91364
960.78997
932.86739
928.07448
936.41065
906.91607
903.75807
935.25765
960.78991
960.78979
960.56635
938.9595
916.01851
900.03525
900.22695
916.14471
956.13626
960.79001
960.78693
954.64531
901.39061
901.35558
900.2134
904.71861
917.01354
944.70861
934.82994
944.82509
907.6427
902.3865
900.11335
900.11978
900.24012
904.57713
900.36315
910.68206
903.43042
901.46945
900.19069
900.00076
900.00041
900.00033
900.00009
900.17723
903.89849
900.85995
901.30884
900.00001
900.00004
900.00002
900.00003
900.03468
900.81178
900.8371
933.17705
939.39164
960.39944
960.4343
927.52584
945.73712
944.0083
935.10262
928.25974
919.51286
953.38513
954.07666
929.33429
932.85057
921.747
913.23065
924.43914
928.71485
960.77815
960.78997
960.71612
958.47349
942.05495
901.10374
900.20404
926.59688
960.78686
960.78693
960.78692
959.23331
908.82253
900.31047
900.19225
908.03837
939.76014
954.03911
929.43135
958.0449
906.52898
900.10766
900.1211
900.15992
902.50858
908.71059
901.07692
930.17984
902.63513
900.80241
900.27727
900.00006
900.00033
900.0008
900.00796
901.27516
902.27528
901.07144
900.49152
900.00001
900.00004
900.00028
900.00004
900.00814
900.44359
900.62761
927.42646
929.41874
955.91754
960.50593
921.02353
945.35272
959.02355
914.83785
929.68092
918.0895
942.30403
945.65545
921.68959
932.59326
925.02994
910.4341
929.67508
912.97594
960.07961
960.77892
956.30582
960.13584
951.87977
919.50189
910.11108
935.32923
960.70284
960.78899
960.65089
960.39546
939.64973
902.01326
900.05963
919.60419
959.72669
945.97846
918.88001
960.18841
913.39844
900.11182
900.02117
905.76815
912.16459
905.034
903.74541
958.11438
903.68095
900.21722
900.1416
900.00012
900.00068
900.00036
900.46617
911.84204
901.90673
900.54532
900.07223
900.00001
900.00002
900.0002
900.00005
900.00064
900.29221
900.21328
926.68822
931.97672
960.56234
960.56653
917.90287
929.14944
963.93725
926.73452
910.10437
910.75669
937.88733
958.29135
912.76097
920.56614
928.42449
917.33101
927.0152
910.89647
949.86144
960.76839
944.48966
954.91986
929.92709
924.17878
931.0885
934.88185
960.64423
960.71992
951.65498
960.18793
945.74012
912.90237
908.0143
932.7179
960.59062
951.3859
907.10283
960.1284
917.43311
905.19126
901.12536
911.69338
936.21275
910.01351
908.24167
959.83508
903.75593
901.32497
900.0227
900.0649
901.92477
900.00197
902.45794
948.92222
902.09974
900.08008
900.01808
900.00156
900.00059
900.00006
900.2852
908.89103
900.33428
900.0739
912.91263
942.77168
960.56653
960.57205
916.65025
913.78525
965.18354
923.28729
904.33216
915.5436
938.3105
960.61248
910.44385
907.06302
952.43329
911.02547
904.26449
910.53464
948.24212
960.70891
920.73955
930.5419
929.72046
912.30386
929.09045
931.50114
960.63203
960.64423
928.4943
950.18696
922.04185
930.37222
930.20081
932.12813
960.62501
959.22977
906.71197
955.41265
919.42344
928.00122
913.28604
907.80269
950.63481
923.08981
907.52035
959.6009
904.77291
911.74054
900.02683
900.00085
905.12896
900.00443
903.39677
959.26065
903.3749
901.17403
900.0175
900.00078
900.00008
900.00005
900.55487
932.53859
900.72362
900.06607
909.37403
943.99383
960.54197
958.21241
916.7208
911.38293
965.31654
931.18662
910.19471
926.8973
935.41767
957.33481
908.12597
905.52896
964.6252
916.92875
902.53914
906.80508
945.29967
953.58094
905.26282
906.20142
933.41426
911.3263
925.26418
932.02485
960.62497
960.59971
902.76549
916.70022
901.00026
931.28512
930.65612
930.56338
960.59299
958.20153
906.2902
926.5074
907.01024
933.18716
913.96246
907.09961
959.43095
927.44816
905.57488
941.42222
910.96095
930.36975
900.08001
900.1166
915.44564
900.52043
902.40836
949.33208
900.99703
915.39214
900.01677
900.00061
900.00043
900.00321
900.29488
918.9977
900.58018
901.705
910.5281
944.17921
960.51399
951.82609
917.99729
911.58212
965.38058
937.57663
911.52594
925.48981
935.08028
945.97538
902.85757
906.1824
965.39522
933.86298
902.55225
909.00268
940.42278
916.99093
900.18177
905.91615
939.0861
920.08317
917.33478
932.68047
960.59295
948.97574
900.03501
900.0797
900.34617
926.7761
930.63677
930.27021
960.54317
948.61185
903.5148
901.9253
909.00641
933.77418
905.44447
909.89783
960.38143
915.50316
902.54854
907.42181
917.83952
934.59545
900.00889
902.83816
946.24137
900.44818
901.08498
913.32295
900.10559
932.41691
900.01495
900.39197
907.78188
900.09875
900.06419
902.61394
900.23591
913.30686
921.27229
949.9735
960.48943
950.26396
919.66433
912.82291
965.39522
935.12507
920.2035
932.87092
932.85904
931.95036
900.03741
910.9074
965.39913
929.29586
903.5543
916.56681
935.74262
902.53757
900.02734
914.41386
945.31251
922.86787
900.36998
925.50192
960.5431
918.71087
900.02429
900.02591
902.40821
921.39049
927.15297
921.88088
960.48109
925.06018
900.60005
900.61942
915.15395
934.60702
918.26194
912.017
960.34391
910.67921
901.12239
900.424
921.24811
934.8253
902.25979
907.75642
960.19255
901.83471
900.30567
900.02537
900.06078
934.62111
900.01478
903.3068
933.82503
900.33078
900.00187
900.00347
900.85324
919.51783
922.00576
942.84433
960.07255
950.2345
922.02961
914.13305
965.40135
927.52935
907.808
931.33293
928.67676
918.89806
900.01681
911.41748
965.39522
922.91512
901.83521
914.27676
930.9356
902.78219
900.06389
922.62671
954.46717
921.09703
900.38452
916.23656
960.48044
904.39917
900.02433
900.02433
906.83941
918.8089
919.99087
908.41768
960.44673
903.76884
900.0223
902.12202
924.57255
934.84265
919.89225
907.72642
960.31645
905.03976
901.00782
900.3876
924.86231
934.94109
910.11376
906.9728
960.10103
901.87989
900.23461
900.00552
900.01754
933.32199
900.38526
905.38118
947.70455
900.62452
900.00006
900.00003
900.5065
915.1926
926.75855
931.61542
959.84563
948.48429
923.84803
917.75359
965.36807
927.64676
907.93699
915.84035
937.00621
910.56763
900.004
910.53111
965.39885
916.67232
908.51098
903.34266
907.70842
901.32862
900.02939
921.2909
959.45016
921.48074
902.50826
906.36953
942.6318
902.05178
900.05264
901.88699
909.02299
914.13825
904.54281
903.61346
955.3495
901.32381
900.01788
902.06247
919.97843
934.94075
919.83288
904.96296
960.09711
902.62498
900.89388
900.18191
936.6627
935.20509
919.12794
905.17758
959.89491
900.29541
900.28466
900.01286
905.3363
922.74905
905.72821
905.41529
958.78505
900.79736
900.00002
900.00002
900.00003
906.57378
932.71786
932.22622
959.60083
947.10162
925.96931
923.53623
964.28412
943.44482
915.01941
906.3341
933.97718
906.81858
900.0034
910.47026
965.36807
912.90568
918.97784
900.04797
900.25776
900.11988
900.0281
914.36462
965.10944
912.36337
902.96187
900.24412
910.09862
900.57257
900.03265
905.57147
951.12738
915.20363
902.7817
901.07196
934.13528
900.4411
900.01454
902.87061
922.84938
929.37399
917.93529
911.16401
949.08483
902.26927
900.41588
901.30122
937.4906
934.34534
919.12477
907.8502
954.6302
900.32007
900.3829
900.40299
932.65267
919.28002
907.73842
906.17923
951.62042
901.10846
900.00002
900.10754
908.62876
906.01483
931.1613
941.91665
959.31384
944.67272
928.88934
921.9651
959.38351
954.49437
907.25499
907.54016
938.93754
904.14959
900.0028
917.41008
965.13662
937.4948
915.49925
900.01143
901.70049
900.00005
900.01461
907.0114
964.06824
902.79797
903.01535
900.01726
900.17147
900.01218
900.0145
908.7591
963.37587
910.80847
902.82442
905.10941
906.05426
900.0205
900.00897
904.56046
948.68196
912.11029
913.48629
917.59345
916.54528
901.15851
900.06486
903.27979
937.56724
919.75058
919.08358
917.74918
917.43896
900.44137
900.30876
901.4807
937.4906
912.89811
908.646
906.08336
919.89886
901.62951
900.00003
900.64741
929.57661
905.36053
928.89818
949.87195
959.24393
942.66422
933.30645
918.61989
957.96223
948.25875
906.02875
911.29914
939.18589
902.20638
900.0028
908.90649
964.99587
958.05957
907.06035
900.00753
902.00278
900.00001
900.00418
902.07219
964.59075
927.29763
905.22999
900.01166
900.00069
900.00004
900.00538
906.46614
962.91395
910.0649
903.35326
909.83028
900.00194
900.00068
900.00478
904.25036
947.26271
910.24795
906.14812
917.78298
900.097
900.3818
900.00911
903.27587
929.64166
908.93495
914.30911
917.7872
900.05936
901.35757
900.07706
901.56752
936.23398
906.34243
911.50186
908.52624
900.09502
901.75533
900.00073
901.2733
931.39767
903.86227
928.78118
950.29519
959.15489
942.04608
938.65149
916.97411
960.26223
962.05842
905.58586
918.7283
934.7105
900.98651
900.04102
900.21317
962.80653
963.44401
901.16134
900.00447
901.11085
900
900.00001
901.61442
952.2144
963.45804
908.95775
900.00074
900.00011
900.00001
900.00153
903.10876
946.22025
925.65362
906.71471
905.73723
900.00015
900.00029
900.00222
903.10256
921.97769
913.49773
903.011
917.08959
900.00065
900.18762
900.00801
902.17724
907.92046
908.98508
905.27846
917.77873
900.02774
901.57332
900.00653
901.4831
916.84205
902.47289
909.91081
915.33396
900.05341
901.75374
900.00049
901.27042
917.24601
901.50133
928.82805
947.13023
959.06103
941.94386
942.44593
917.88575
966.16315
967.30075
905.72912
919.29369
926.65553
900.47057
900.40204
900.01988
960.88821
961.61875
900.83476
900.00105
900.2061
900
900
900.63436
938.85617
963.88008
909.5204
900.00005
900.00027
900
900.00091
900.82584
921.20455
957.54384
908.96166
900.5633
900.00001
900.00032
900.00179
900.70745
907.89602
928.06351
901.78324
909.52572
900.00004
900.08428
900.0073
900.28428
900.37054
911.46264
902.29633
917.74547
900.00019
900.97349
900.01528
900.87568
900.93659
901.20494
903.77196
914.93376
900.06733
901.13463
900.01103
900.83154
900.68051
900.24016
928.42011
943.7827
958.98221
941.31117
944.65411
920.86794
967.10377
967.34571
907.92034
915.51876
919.66905
900.41689
901.31394
900.01639
959.58309
959.38012
902.21699
900.00005
900.00554
900
900
900.95216
939.60462
963.87166
908.23445
900.00001
900.00008
900
900.00031
900.38736
914.56775
963.87191
908.567
900.00001
900
900.00024
900.00039
900.21231
908.60796
953.00341
901.31773
901.53917
900
900.01747
900.00698
900.16655
902.65961
920.29374
900.69843
908.68146
900.00004
900.09139
900.01781
900.23037
900.45278
900.79993
900.29588
907.05348
900.04899
900.02947
900.01011
900.15718
900.00976
900.0133
925.33177
942.76161
958.93007
939.6223
946.78513
924.86088
956.97112
968.17267
912.54701
908.96026
918.799
900.10049
903.5631
900.01256
938.00534
960.50558
907.66202
900.00001
900
900
900
901.0977
937.39287
963.27725
907.95774
900
900.00001
900
900.00033
900.13637
915.48762
962.45698
905.55144
900
900
900.00007
900.00007
900.40397
915.90757
960.00467
900.71197
900.01254
900
900.00035
900.00763
900.73852
911.31009
927.38498
900.11793
900.22504
900.0003
900.00027
900.02753
900.2204
900.59353
900.56863
900.03343
900.19072
900.03055
900.00194
900.00693
900.00083
900.0083
900.00283
924.83118
944.07451
958.87362
936.3791
946.88442
929.42306
946.31575
971.92964
910.22818
907.42457
918.46606
900.00001
906.88638
900.01072
910.25968
966.60345
908.67565
900
900.00005
900
900.00001
900.4936
919.55004
964.66344
906.73033
900
900
900
900.00033
900.00011
918.8779
937.74941
902.15839
900
900
900
900.00017
900.31663
913.88193
959.83231
900.10647
900.00173
900
900.00001
900.00706
901.14631
910.41787
941.09836
900.04235
900.00519
900.00269
900.00004
900.03412
900.18288
900.00115
902.14128
900.08028
900.02106
900.0305
900.00006
900.0034
900.0005
900.01457
900.00081
925.58822
945.79996
958.81563
933.71126
946.90223
929.78161
948.36966
972.06707
907.3534
907.69354
917.96626
900
908.36867
900.00588
903.47647
963.92108
908.53173
900
900.00006
900
900
900.04511
906.64518
963.12009
904.84714
900
900
900
900.00009
900.00001
915.13384
925.23199
900.26627
900
900
900
900.00001
900.032
906.43181
956.42545
900.00734
900.00719
900
900.00001
900.00139
900.97716
906.79376
942.041
900.04152
900.05629
900.00959
900.00002
900.03092
900.08137
900.00059
905.98837
900.09705
900.05913
900.05249
900.00001
900.00015
900.0004
900.0099
900.0013
927.43776
945.79797
958.74483
932.92397
946.91919
928.66293
966.02899
972.07519
907.05833
907.59192
917.72573
900
908.24111
900.00062
908.37761
947.63261
910.12395
900
900
900
900
900.00001
905.56426
959.35212
905.42122
900
900
900
900
900
908.95734
927.62295
900.14387
900
900
900
900
900
906.51145
929.40068
900.00963
900.01295
900
900
900.00003
900.23338
903.39406
930.81022
900.01933
900.18811
900.02068
900.00001