/*--------------------------------*- C++ -*----------------------------------*\
  =========                 |
  \\      /  F ield         | OpenFOAM: The Open Source CFD Toolbox
   \\    /   O peration     | Website:  https://openfoam.org
    \\  /    A nd           | Version:  13
     \\/     M anipulation  |
\*---------------------------------------------------------------------------*/
FoamFile
{
    format      ascii;
    class       volVectorField;
    location    "0.11";
    object      U;
}
// * * * * * * * * * * * * * * * * * * * * * * * * * * * * * * * * * * * * * //

dimensions      [0 1 -1 0 0 0 0];

internalField   nonuniform List<vector> 
51200
(
(0.053574712 0.012971191 0.01190841)
(0.058623851 0.0070101572 0.012112064)
(0.057274255 0.0031560944 0.01219946)
(0.056549485 0.00083745439 0.012229116)
(0.0565495 -0.00083682764 0.012229114)
(0.057274299 -0.0031555337 0.012199457)
(0.058623927 -0.0070097453 0.01211206)
(0.053574811 -0.012971093 0.011908405)
(0.12317364 0.032015812 0.03399439)
(0.13010609 0.014354719 0.033250228)
(0.12708949 0.0065210372 0.033241332)
(0.12568096 0.0017614702 0.033269023)
(0.12568099 -0.0017600704 0.033269015)
(0.12708958 -0.006519778 0.033241314)
(0.13010624 -0.01435375 0.033250205)
(0.12317386 -0.032015503 0.033994366)
(0.16711261 0.041769626 0.046622586)
(0.1724294 0.01814586 0.04438864)
(0.16853495 0.0083023415 0.044178827)
(0.16688517 0.0022621077 0.044262843)
(0.1668852 -0.0022602351 0.044262827)
(0.16853505 -0.0083006389 0.044178784)
(0.17242957 -0.01814449 0.044388576)
(0.16711288 -0.041769089 0.046622524)
(0.19422743 0.045576867 0.052586646)
(0.19681805 0.019885552 0.048891113)
(0.19258801 0.0091298719 0.048475018)
(0.19093453 0.002506599 0.048623001)
(0.19093457 -0.00250444 0.048622976)
(0.1925881 -0.0091278872 0.048474946)
(0.19681821 -0.019883891 0.048891005)
(0.19422771 -0.0455761 0.052586533)
(0.21018964 0.046040297 0.054436017)
(0.21007718 0.020436315 0.049577817)
(0.20586257 0.0093807145 0.049011957)
(0.20432174 0.0025957501 0.049206845)
(0.20432177 -0.0025934206 0.049206811)
(0.20586265 -0.0093785516 0.049011857)
(0.21007731 -0.020434446 0.049577667)
(0.21018991 -0.04603931 0.054435848)
(0.21875566 0.044606264 0.05363112)
(0.21644132 0.020295013 0.048019313)
(0.21245543 0.0092862756 0.047379548)
(0.21107474 0.002591435 0.047590815)
(0.21107477 -0.002589006 0.047590774)
(0.2124555 -0.0092840009 0.047379424)
(0.21644142 -0.020292995 0.048019129)
(0.21875589 -0.044605072 0.053630896)
(0.2224795 0.042085102 0.051079724)
(0.21859176 0.01975629 0.045182509)
(0.21495807 0.0089868074 0.044525899)
(0.21374982 0.0025310537 0.044716145)
(0.21374984 -0.002528568 0.044716097)
(0.21495812 -0.0089844581 0.044525755)
(0.21859185 -0.019754155 0.0451823)
(0.2224797 -0.042083716 0.051079451)
(0.22305963 0.039064824 0.047581359)
(0.21820084 0.0189346 0.041630941)
(0.21498913 0.0085728454 0.041057667)
(0.21395026 0.0024369663 0.041195046)
(0.21395027 -0.0024344506 0.041194993)
(0.21498917 -0.0085704443 0.041057509)
(0.2182009 -0.018932373 0.04163072)
(0.2230598 -0.03906326 0.047581053)
(0.036099255 0.0033554893 0.0012200969)
(0.04169172 0.0037365379 0.0013299607)
(0.039942788 0.0021923172 0.0012627899)
(0.038637288 0.00070484025 0.0012431842)
(0.03863737 -0.00070354297 0.0012431827)
(0.039943055 -0.0021911608 0.0012627861)
(0.041692163 -0.0037357112 0.0013299586)
(0.036099722 -0.0033553367 0.0012201001)
(0.095956155 0.011273837 0.0074479124)
(0.10663433 0.010540584 0.0077516015)
(0.10213585 0.0059435389 0.0074498637)
(0.099131942 0.0018754628 0.0073719489)
(0.099132128 -0.0018722111 0.007371937)
(0.10213645 -0.0059406259 0.0074498274)
(0.10663537 -0.010538422 0.0077515731)
(0.095957336 -0.011273269 0.0074478999)
(0.14521114 0.01942699 0.015179493)
(0.1566509 0.016168256 0.015321101)
(0.15008546 0.0089086166 0.014703464)
(0.14608104 0.0027840352 0.014568448)
(0.14608128 -0.0027793787 0.014568421)
(0.15008623 -0.0089044077 0.014703373)
(0.15665227 -0.016165015 0.015321016)
(0.14521281 -0.019425907 0.015179427)
(0.18433714 0.026480806 0.022757986)
(0.19373248 0.020416021 0.022424722)
(0.18573021 0.011078946 0.021489777)
(0.18124046 0.0034440793 0.021314601)
(0.18124072 -0.0034384426 0.021314556)
(0.18573104 -0.011073801 0.021489618)
(0.19373399 -0.020411915 0.022424555)
(0.18433911 -0.026479149 0.022757828)
(0.21395816 0.031845607 0.029188463)
(0.21981275 0.02333543 0.028189827)
(0.21094022 0.012533469 0.026988549)
(0.2063248 0.0038878894 0.026790274)
(0.20632505 -0.0038815849 0.02679021)
(0.21094103 -0.012527659 0.026988318)
(0.21981426 -0.023330633 0.028189565)
(0.21396027 -0.031843351 0.029188185)
(0.23503254 0.035471481 0.034084344)
(0.23687043 0.025094285 0.032361047)
(0.22761072 0.013387276 0.030977286)
(0.22310399 0.00415393 0.030768165)
(0.22310423 -0.0041471808 0.030768085)
(0.22761147 -0.013380997 0.030976986)
(0.23687185 -0.025088935 0.032360688)
(0.23503465 -0.035468624 0.034083933)
(0.24872362 0.037571361 0.037427346)
(0.24678402 0.025875733 0.035009739)
(0.23752479 0.013757376 0.033542575)
(0.23326895 0.0042786487 0.03333045)
(0.23326917 -0.0042716113 0.033330353)
(0.23752546 -0.013750771 0.033542217)
(0.2467853 -0.025869943 0.03500929)
(0.24872565 -0.03756792 0.037426799)
(0.25617674 0.03840439 0.039356865)
(0.25118194 0.025821725 0.036286858)
(0.24220805 0.013746272 0.034867453)
(0.2382851 0.0042922326 0.034658313)
(0.2382853 -0.0042850171 0.034658198)
(0.24220864 -0.013739443 0.034867058)
(0.25118304 -0.025815592 0.036286337)
(0.25617863 -0.038400416 0.03935621)
(0.016239431 0.0015004074 6.6751862e-06)
(0.023350906 0.0028569198 9.4006307e-05)
(0.024064761 0.0019328388 9.4428063e-05)
(0.023415178 0.00064556609 8.9495343e-05)
(0.023415392 -0.00064357263 8.9492215e-05)
(0.024065457 -0.0019310709 9.4423114e-05)
(0.023352015 -0.0028557069 9.4003829e-05)
(0.01624047 -0.0015002325 6.6781632e-06)
(0.052307387 0.005122029 0.0019440417)
(0.069065389 0.008094215 0.0024176344)
(0.069927724 0.0052789061 0.0023112547)
(0.068071495 0.0017549837 0.0022225838)
(0.068072002 -0.0017498056 0.0022225618)
(0.069929393 -0.0052742905 0.002311205)
(0.069068163 -0.0080909217 0.0024176105)
(0.05231021 -0.0051212786 0.0019440398)
(0.089755319 0.009670044 0.0054194055)
(0.11184645 0.012869173 0.0062442663)
(0.11193766 0.0081264806 0.0059489547)
(0.10903995 0.0026835749 0.0057344301)
(0.10904064 -0.0026759599 0.0057343807)
(0.11193992 -0.0081196334 0.0059488307)
(0.11185036 -0.012864109 0.0062441905)
(0.089759568 -0.0096685317 0.0054193679)
(0.12635811 0.014768862 0.010081716)
(0.15006849 0.017034953 0.011085524)
(0.14885949 0.01045632 0.01053017)
(0.14514587 0.0034313648 0.01016619)
(0.14514663 -0.0034219441 0.010166108)
(0.14886205 -0.010447769 0.010529948)
(0.15007306 -0.017028406 0.011085364)
(0.12636342 -0.014766467 0.010081603)
(0.16012477 0.019874956 0.015282015)
(0.18259533 0.020444931 0.016210954)
(0.17989876 0.012255204 0.015350366)
(0.17562039 0.0040019308 0.014836722)
(0.17562118 -0.0039912112 0.014836607)
(0.17990138 -0.012245379 0.015350032)
(0.18260019 -0.02043715 0.016210679)
(0.16013076 -0.019871607 0.01528178)
(0.18953285 0.024563037 0.020489964)
(0.20889563 0.023006606 0.021086991)
(0.20477227 0.013530331 0.019899088)
(0.20016984 0.0044043208 0.019250202)
(0.2001706 -0.0043926946 0.019250055)
(0.20477481 -0.013519572 0.019898639)
(0.20890047 -0.022997802 0.021086579)
(0.18953918 -0.024558698 0.020489567)
(0.21359991 0.028566416 0.025342213)
(0.22899221 0.02467417 0.02536339)
(0.22363702 0.014311461 0.023849389)
(0.21891773 0.004652867 0.023091511)
(0.21891843 -0.0046406304 0.023091336)
(0.22363937 -0.014300031 0.02384883)
(0.22899679 -0.024664527 0.025362829)
(0.2136063 -0.028561089 0.025341624)
(0.23181022 0.031580787 0.029345205)
(0.24333587 0.025454271 0.028687283)
(0.23694748 0.014652863 0.026907872)
(0.23228068 0.0047665876 0.026094479)
(0.23228131 -0.0047539612 0.026094282)
(0.23694959 -0.014640966 0.026907222)
(0.24334006 -0.02544395 0.028686576)
(0.23181645 -0.031574537 0.029344442)
(0.014217122 0.00058949317 7.6494017e-05)
(0.020929144 0.0015860386 0.00010598096)
(0.022448574 0.0012408051 9.8833208e-05)
(0.022233325 0.00043821836 8.8594625e-05)
(0.022233723 -0.00043533619 8.8590683e-05)
(0.022449838 -0.0012382921 9.8829394e-05)
(0.020931057 -0.0015843979 0.00010598283)
(0.014218789 -0.00058932689 7.6501808e-05)
(0.043860675 0.0022563258 0.00077273864)
(0.060479732 0.0048534001 0.0010547939)
(0.063906529 0.0036430001 0.0010110634)
(0.063209937 0.0012772436 0.00092140569)
(0.063210903 -0.0012696391 0.00092137779)
(0.063909648 -0.003636327 0.0010110147)
(0.06048466 -0.0048488429 0.0010548014)
(0.043865327 -0.002255454 0.00077276647)
(0.074076379 0.00457756 0.0022433556)
(0.09740408 0.0081543103 0.0028926824)
(0.10170425 0.0059008835 0.0027625062)
(0.10046904 0.0020523487 0.0025414073)
(0.10047037 -0.0020410213 0.0025413437)
(0.10170862 -0.0058908504 0.0027623765)
(0.097411241 -0.0081471921 0.0028926734)
(0.074083578 -0.0045756753 0.0022433814)
(0.10424944 0.0074709789 0.0044767842)
(0.13144341 0.011359174 0.0054963553)
(0.13574296 0.0079428048 0.0052206622)
(0.13394 0.0027407347 0.0048339064)
(0.13394154 -0.0027265614 0.0048337996)
(0.13574806 -0.0079301253 0.0052204196)
(0.1314521 -0.011349853 0.0054962983)
(0.10425871 -0.007467874 0.004476772)
(0.1335889 0.01076646 0.0073514517)
(0.16220009 0.014310412 0.008636327)
(0.16582606 0.0096996893 0.008152991)
(0.16347197 0.003323234 0.007587218)
(0.16347358 -0.0033069528 0.0075870656)
(0.16583148 -0.0096849742 0.0081526128)
(0.16220967 -0.01429922 0.0086361824)
(0.13359973 -0.010762006 0.0073513524)
(0.16117501 0.014245318 0.010677396)
(0.18925836 0.016853038 0.012043721)
(0.19174883 0.011119466 0.011296865)
(0.18890463 0.0037872953 0.01055737)
(0.18890622 -0.0037695056 0.010557173)
(0.19175425 -0.011103222 0.011296338)
(0.18926829 -0.016840274 0.012043449)
(0.16118691 -0.014239447 0.010677154)
(0.18606737 0.017664923 0.014223919)
(0.21232548 0.018854036 0.015437834)
(0.21339157 0.012175459 0.014389911)
(0.21015118 0.0041284084 0.013500279)
(0.21015269 -0.0041095829 0.013500042)
(0.21339674 -0.012158096 0.014389235)
(0.21233529 -0.018839967 0.015437405)
(0.18607984 -0.017657625 0.014223482)
(0.20742771 0.020701539 0.017603813)
(0.23135515 0.0202417 0.018554547)
(0.23078061 0.012870659 0.017192692)
(0.22726144 0.0043504878 0.016206805)
(0.22726283 -0.0043309918 0.016206536)
(0.23078537 -0.012852501 0.017191883)
(0.23136447 -0.020226558 0.018553937)
(0.20744033 -0.020692894 0.017603186)
(0.011501366 0.00032873709 1.4783526e-05)
(0.01805709 0.00097406918 4.3305618e-05)
(0.02034365 0.00080124021 4.3171095e-05)
(0.020638963 0.00028747917 3.468223e-05)
(0.020639645 -0.00028337136 3.4678041e-05)
(0.020345758 -0.00079773171 4.3168515e-05)
(0.018060146 -0.00097187873 4.3310967e-05)
(0.011503914 -0.00032857596 1.4793481e-05)
(0.036266411 0.0012651551 0.00042595319)
(0.052989121 0.0030244083 0.00064308201)
(0.05857527 0.0024281507 0.0006178034)
(0.059192659 0.0008747241 0.00053132223)
(0.059194347 -0.00086381763 0.00053129004)
(0.058580582 -0.0024187536 0.00061775628)
(0.052997151 -0.0030182254 0.00064311661)
(0.036273663 -0.0012641164 0.0004259943)
(0.06211611 0.0025933616 0.001281032)
(0.086267925 0.0051714208 0.0017687587)
(0.093984109 0.0040435751 0.001686129)
(0.094669252 0.0014533911 0.0014739138)
(0.09467162 -0.0014370561 0.0014738377)
(0.093991682 -0.0040293505 0.0016859953)
(0.086279795 -0.0051616571 0.00176881)
(0.062127505 -0.0025909824 0.0012810858)
(0.088482606 0.0043013945 0.0025882439)
(0.11762512 0.0073648882 0.0033706553)
(0.1264421 0.0055999735 0.0031902994)
(0.12697778 0.002003564 0.0028201731)
(0.12698055 -0.0019830192 0.0028200423)
(0.12645112 -0.0055818866 0.0031900378)
(0.11763978 -0.0073519886 0.0033706947)
(0.088497499 -0.004297351 0.0025882762)
(0.11476622 0.0063317627 0.0043037135)
(0.14679064 0.0095206989 0.0053429828)
(0.15582947 0.0070407513 0.0050197928)
(0.15604785 0.0025051341 0.0044780477)
(0.15605081 -0.0024814262 0.0044778575)
(0.15583924 -0.0070196497 0.0050193711)
(0.14680711 -0.0095051063 0.0053429667)
(0.11478391 -0.0063258497 0.0043036743)
(0.14033356 0.0085976142 0.0063616399)
(0.17351377 0.011534242 0.0075613508)
(0.18204333 0.0083115433 0.0070493892)
(0.18183085 0.0029405768 0.0063385378)
(0.18183384 -0.0029145769 0.0063382887)
(0.1820533 -0.0082881485 0.0070487862)
(0.17353121 -0.011516375 0.0075612295)
(0.14035332 -0.0085897233 0.0063614663)
(0.16452943 0.010972172 0.0086595492)
(0.19760676 0.013295372 0.0098742742)
(0.20501527 0.009370442 0.0091363896)
(0.20431247 0.0032975111 0.0082756945)
(0.20431535 -0.0032699246 0.008275391)
(0.20502501 -0.0093453515 0.0091355969)
(0.19762439 -0.013275615 0.0098740023)
(0.16455054 -0.010962282 0.0086591768)
(0.18671177 0.013243005 0.0109724)
(0.21901332 0.014728581 0.012144393)
(0.22473256 0.010195616 0.011150915)
(0.22353528 0.0035704747 0.010186615)
(0.22353798 -0.0035418596 0.010186266)
(0.22474173 -0.010169317 0.011149943)
(0.21903048 -0.014707267 0.012143925)
(0.18673354 -0.013231226 0.010971835)
(0.010243139 0.00018714138 1.3752324e-05)
(0.016508386 0.00057880263 3.1692973e-05)
(0.019190522 0.00048649533 3.0926654e-05)
(0.01985932 0.00017660389 2.3406009e-05)
(0.019860413 -0.00017080735 2.3402502e-05)
(0.019193808 -0.00048165735 3.0924393e-05)
(0.016512976 -0.00057591976 3.1699651e-05)
(0.010246831 -0.00018698698 1.3762536e-05)
(0.03234115 0.00073364274 0.00025565395)
(0.048602998 0.0018413249 0.00041306026)
(0.055422739 0.0015357249 0.00039983818)
(0.057064332 0.00056580356 0.00032760524)
(0.057067078 -0.00055036686 0.00032757353)
(0.055431135 -0.0015226853 0.00039979516)
(0.04861521 -0.0018330671 0.00041311701)
(0.032351788 -0.00073239686 0.00025569465)
(0.055526844 0.0015224477 0.0007707005)
(0.07943063 0.0032099958 0.0011392967)
(0.089233531 0.0026342343 0.0010934394)
(0.091491429 0.00097374501 0.00091597526)
(0.091495332 -0.00095056622 0.0009158958)
(0.089245659 -0.0026144049 0.0010933115)
(0.079448886 -0.0031968243 0.0011394037)
(0.055543733 -0.0015194446 0.00077075125)
(0.079382749 0.0025565819 0.0015697293)
(0.10882965 0.0046625062 0.0021792824)
(0.12056569 0.003749677 0.00207385)
(0.12311358 0.0013846108 0.0017638855)
(0.12311822 -0.0013553903 0.0017637432)
(0.12058033 -0.0037243637 0.0020735883)
(0.10885246 -0.0046449621 0.0021794185)
(0.079405057 -0.0025513419 0.0015697571)
(0.10346707 0.0038155008 0.0026348403)
(0.13663253 0.0061545885 0.0034710184)
(0.14935859 0.0048419676 0.0032744697)
(0.1519113 0.001781883 0.002819911)
(0.15191632 -0.0017480956 0.0028196976)
(0.1493747 -0.0048123384 0.0032740304)
(0.1366585 -0.006133247 0.0034711379)
(0.10349386 -0.00380771 0.002634794)
(0.12731541 0.0052621745 0.003935302)
(0.16268751 0.0076256479 0.0049437997)
(0.17556 0.0058693403 0.0046229335)
(0.17788085 0.0021498085 0.0040248024)
(0.17788598 -0.0021126967 0.0040245157)
(0.1755767 -0.0058364075 0.0046222835)
(0.16271539 -0.0076010821 0.0049438445)
(0.12734568 -0.0052516605 0.0039351128)
(0.15044672 0.0068345065 0.0054200593)
(0.18688871 0.0090055565 0.0065133293)
(0.19913564 0.0067945013 0.0060387695)
(0.20104201 0.002475216 0.0053113019)
(0.20104704 -0.0024357987 0.0053109449)
(0.19915222 -0.0067591163 0.0060378892)
(0.18691734 -0.0089783101 0.0065132412)
(0.15047946 -0.0068212266 0.0054196532)
(0.17237566 0.0084129793 0.0069678286)
(0.2092188 0.010239818 0.008113426)
(0.22007382 0.0075900574 0.0074531798)
(0.22144594 0.002749166 0.0066314616)
(0.22145071 -0.0027082601 0.0066310415)
(0.22008972 -0.0075529225 0.0074520686)
(0.20924715 -0.010210367 0.0081131366)
(0.17240989 -0.0083970806 0.0069672252)
(0.0094092721 0.00011893718 7.16736e-06)
(0.015453518 0.00036018117 2.0483741e-05)
(0.018378509 0.00029884953 2.0819869e-05)
(0.01931748 0.0001088042 1.5209935e-05)
(0.019319179 -0.00010063873 1.5209163e-05)
(0.018383492 -0.00029218875 2.0817316e-05)
(0.015460272 -0.00035640491 2.0491761e-05)
(0.0094145551 -0.00011877825 7.1767502e-06)
(0.029802497 0.00046043498 0.00015960954)
(0.045654133 0.0011557651 0.00027596021)
(0.053237883 0.00097231725 0.00027214477)
(0.055633058 0.00036429869 0.00021725099)
(0.055637368 -0.00034253236 0.00021722491)
(0.05325073 -0.00095428606 0.00027209928)
(0.045672243 -0.0011448076 0.00027602197)
(0.029817837 -0.0004589017 0.00015962571)
(0.05130665 0.00095246092 0.00048698757)
(0.074843754 0.0020342931 0.00076238138)
(0.085957222 0.0017059727 0.00074320851)
(0.089395106 0.00064554972 0.00060782735)
(0.089401291 -0.00061284219 0.00060775079)
(0.085975932 -0.0016784687 0.00074307075)
(0.074871011 -0.0020166572 0.00076249703)
(0.051331162 -0.0009486272 0.00048696616)
(0.073567237 0.0016022479 0.0009987646)
(0.10290264 0.0029894842 0.0014609905)
(0.11650763 0.0024811588 0.0014096394)
(0.12060208 0.00094177761 0.001172576)
(0.1206095 -0.0009005195 0.0011724272)
(0.11653043 -0.0024459599 0.0014093506)
(0.10293694 -0.0029658166 0.0014611387)
(0.073599817 -0.0015954266 0.00099865655)
(0.096217069 0.0024030584 0.0016862341)
(0.12971212 0.0040005251 0.0023329765)
(0.14485684 0.003273108 0.0022287625)
(0.14925661 0.0012413736 0.0018804233)
(0.14926474 -0.0011936484 0.0018801883)
(0.14488216 -0.0032318263 0.0022282658)
(0.12975149 -0.0039715575 0.0023331088)
(0.096256449 -0.0023927847 0.0016859779)
(0.1188757 0.0033391101 0.0025336648)
(0.15516947 0.0050350243 0.0033356891)
(0.17097577 0.0040541303 0.0031561339)
(0.17537109 0.0015325469 0.00269689)
(0.17537948 -0.0014801195 0.0026965624)
(0.17100231 -0.0040081811 0.0031553829)
(0.15521207 -0.0050015217 0.0033357419)
(0.11892051 -0.0033251158 0.0025331831)
(0.14115034 0.0043802301 0.0035143035)
(0.17920946 0.0060523088 0.0044204621)
(0.19484305 0.0047970031 0.0041442971)
(0.19897259 0.001804439 0.0035843276)
(0.19898091 -0.0017487652 0.0035839078)
(0.1948697 -0.0047475906 0.004143261)
(0.17925363 -0.0060150227 0.0044203709)
(0.14119915 -0.0043624332 0.0035135156)
(0.16263844 0.0054596415 0.0045608901)
(0.20183577 0.0070185422 0.0055547518)
(0.21644376 0.0054782389 0.0051541933)
(0.22010661 0.0020483153 0.0045185658)
(0.22011461 -0.001990569 0.0045180582)
(0.21646965 -0.0054263655 0.0051528612)
(0.20188 -0.0069781478 0.0055544359)
(0.16268988 -0.0054382266 0.0045598508)
(0.0088881939 7.9443148e-05 4.5502354e-06)
(0.014755635 0.00023417273 1.3882517e-05)
(0.017810871 0.00019103881 1.4649525e-05)
(0.018928759 7.0485668e-05 1.069042e-05)
(0.018931366 -5.8980203e-05 1.0693893e-05)
(0.017818364 -0.00018186995 1.4642011e-05)
(0.014765528 -0.00022926833 1.3885909e-05)
(0.0088957256 -7.9252212e-05 4.5508653e-06)
(0.028192108 0.00030318103 0.00010308786)
(0.043679335 0.00075343829 0.0001885653)
(0.051697139 0.00063400747 0.00019190387)
(0.054604644 0.00024293327 0.0001533907)
(0.054611295 -0.0002122633 0.00015337184)
(0.051716557 -0.0006090969 0.00019182882)
(0.043705991 -0.00073901789 0.00018857804)
(0.028214103 -0.00030124301 0.0001030182)
(0.048601587 0.00062358004 0.0003174262)
(0.071741943 0.0013323564 0.0005234062)
(0.083628659 0.0011293944 0.00052506447)
(0.087886622 0.00043875829 0.00042969712)
(0.087896222 -0.00039267814 0.00042962062)
(0.083657076 -0.0010913066 0.00052485593)
(0.071782224 -0.0013089295 0.00052339771)
(0.048636884 -0.00061864996 0.00031718209)
(0.06980366 0.0010480625 0.00065581521)
(0.098852077 0.0019712418 0.0010072405)
(0.11359573 0.0016671644 0.00099794356)
(0.11878971 0.00065112201 0.00083031368)
(0.1188013 -0.00059301324 0.00083014691)
(0.11363053 -0.0016183311 0.00099752562)
(0.09890297 -0.001939555 0.0010071711)
(0.069850765 -0.0010391888 0.00065530304)
(0.091477588 0.0015757783 0.0011149174)
(0.12492138 0.0026610323 0.0016155372)
(0.14158408 0.0022329736 0.0015821271)
(0.14732962 0.00087251286 0.0013349182)
(0.14734241 -0.00080532972 0.0013346385)
(0.14162296 -0.0021756245 0.0015814264)
(0.12498003 -0.0026219954 0.0016153498)
(0.091534749 -0.0015622919 0.0011140456)
(0.11329302 0.0022006807 0.001687043)
(0.14987605 0.0033848267 0.0023217236)
(0.16757871 0.0028097606 0.0022488291)
(0.17352678 0.0010949371 0.0019217975)
(0.17354008 -0.0010211886 0.0019213925)
(0.16761972 -0.0027458742 0.0022477861)
(0.14993983 -0.003339439 0.0023213533)
(0.11335832 -0.0021821745 0.0016857185)
(0.13490852 0.002908097 0.0023578697)
(0.17367438 0.0041194241 0.003096136)
(0.19156587 0.0033794641 0.0029680021)
(0.19740981 0.0013105246 0.0025678957)
(0.19742311 -0.0012322853 0.002567362)
(0.19160736 -0.0033107397 0.0029665772)
(0.17374088 -0.0040687036 0.0030955253)
(0.13497996 -0.0028844204 0.0023560102)
(0.15597034 0.0036590001 0.0030880111)
(0.19633336 0.0048445707 0.0039212036)
(0.21353001 0.0039248221 0.003714488)
(0.21901825 0.0015122813 0.0032582237)
(0.21903115 -0.0014312283 0.0032575628)
(0.21357065 -0.003852685 0.0037126651)
(0.19640037 -0.0047894582 0.0039202786)
(0.15604595 -0.003630367 0.003085737)
(0.0085388302 5.6520178e-05 2.9763101e-06)
(0.014272493 0.00016371253 9.6862743e-06)
(0.017396886 0.0001338371 1.0837913e-05)
(0.018630959 5.1639258e-05 8.2304648e-06)
(0.018634941 -3.5311662e-05 8.2389815e-06)
(0.017408172 -0.00012113942 1.0821152e-05)
(0.014287039 -0.00015741575 9.6795484e-06)
(0.0085496112 -5.6243708e-05 2.9607083e-06)
(0.027110177 0.00021193292 6.9829847e-05)
(0.042305104 0.0005228272 0.00013352832)
(0.050566899 0.00044318273 0.00014177732)
(0.053813894 0.00017690813 0.00011651743)
(0.053824092 -0.00013342694 0.00011649489)
(0.05059624 -0.00040858897 0.00014160363)
(0.042344435 -0.00050403257 0.00013336181)
(0.027141821 -0.00020943795 6.9543447e-05)
(0.046779018 0.00043200335 0.0002164493)
(0.069571186 0.00092200267 0.00037233564)
(0.081908967 0.00079055504 0.00038832559)
(0.086719936 0.00031916198 0.0003255264)
(0.086734705 -0.00025390425 0.00032541518)
(0.081952013 -0.00073757736 0.00038786996)
(0.069630764 -0.00089114637 0.0003718599)
(0.046829964 -0.00042565825 0.00021561829)
(0.067257437 0.00072291003 0.00044956722)
(0.095996644 0.0013641273 0.00071945151)
(0.11142577 0.0011713538 0.00073926834)
(0.11737489 0.00047447854 0.00062839553)
(0.11739279 -0.00039229195 0.00062814242)
(0.11147861 -0.0011033593 0.00073841055)
(0.096072068 -0.001322023 0.00071855196)
(0.067325602 -0.00071142694 0.00044797998)
(0.088252952 0.0010858293 0.00076828314)
(0.12151206 0.0018459639 0.0011589164)
(0.13911518 0.0015779793 0.0011747355)
(0.14580339 0.00063842711 0.001010467)
(0.14582321 -0.00054354854 0.0010100355)
(0.1391744 -0.0014980843 0.001173377)
(0.12159915 -0.0017937084 0.0011575089)
(0.088335848 -0.0010682715 0.00076578608)
(0.1094661 0.0015189734 0.0011690046)
(0.14606235 0.0023589396 0.0016735518)
(0.16497259 0.0020006237 0.0016749598)
(0.17203181 0.00080605268 0.0014566576)
(0.17205253 -0.00070208102 0.001456028)
(0.16503524 -0.0019116163 0.0016730329)
(0.14615724 -0.0022978124 0.0016715823)
(0.10956097 -0.0014947344 0.0011654819)
(0.1305878 0.0020152428 0.0016439792)
(0.16962198 0.002889843 0.002244363)
(0.18899132 0.002428111 0.002219524)
(0.19609084 0.00097217791 0.0019512712)
(0.19611167 -0.00086208854 0.001950438)
(0.18905494 -0.0023324035 0.0022169964)
(0.16972113 -0.0028212031 0.0022418168)
(0.13069179 -0.0019840552 0.0016393646)
(0.15129623 0.0025508788 0.0021694452)
(0.19221904 0.0034267161 0.0028615563)
(0.21115884 0.0028488342 0.0027908769)
(0.21801778 0.0011318434 0.0024833448)
(0.21803808 -0.0010180404 0.0024823111)
(0.21122145 -0.0027484605 0.0027877541)
(0.19231928 -0.0033518585 0.0028584243)
(0.1514065 -0.0025129708 0.0021640025)
(0.0082912868 4.2505491e-05 2.1712548e-06)
(0.013921321 0.00012366858 7.0350705e-06)
(0.017080238 0.00010540586 8.3755316e-06)
(0.01838931 4.4592757e-05 6.7382698e-06)
(0.018395495 -2.1192071e-05 6.7455385e-06)
(0.017097733 -8.7688836e-05 8.3261854e-06)
(0.013943376 -0.00011571467 6.977463e-06)
(0.0083072193 -4.2058794e-05 2.0982443e-06)
(0.026343212 0.00015681107 5.0196062e-05)
(0.041303541 0.00038966259 9.8417493e-05)
(0.04969935 0.00034055714 0.00010939885)
(0.053169876 0.00014624291 9.3903334e-05)
(0.053185723 -8.4008987e-05 9.3837315e-05)
(0.049744802 -0.00029215346 0.00010895627)
(0.041363187 -0.00036544946 9.7724344e-05)
(0.026390089 -0.00015364077 4.9339466e-05)
(0.045485784 0.00031664358 0.00015577398)
(0.067984289 0.00068149238 0.00027552688)
(0.080583124 0.00059926147 0.00029983132)
(0.085764071 0.00025751474 0.00026121674)
(0.085787037 -0.0001642642 0.00026097503)
(0.08064975 -0.00052504129 0.0002987216)
(0.068074566 -0.00064121058 0.00027376193)
(0.045561309 -0.00030868574 0.00015347654)
(0.065447612 0.00052660795 0.00032412353)
(0.093900661 0.0010024646 0.00053418466)
(0.10974235 0.00088005346 0.00057142131)
(0.11620479 0.00037650811 0.00050293828)
(0.11623265 -0.00025929925 0.00050243228)
(0.10982405 -0.00078474602 0.00056942936)
(0.094014792 -0.00094690986 0.0005310664)
(0.065548639 -0.00051215978 0.00031991579)
(0.085954739 0.00078817657 0.00055521318)
(0.11899569 0.0013518619 0.00086342502)
(0.13718337 0.0011794165 0.00090940698)
(0.14452303 0.00050096618 0.00080738108)
(0.14455389 -0.00036596706 0.00080655319)
(0.13727483 -0.0010674387 0.00090639587)
(0.11912727 -0.001282311 0.00085882449)
(0.086077486 -0.00076593836 0.00054881602)
(0.10672803 0.001101121 0.00084729289)
(0.14322704 0.0017253533 0.0012514698)
(0.16290941 0.0014921836 0.0012992658)
(0.17075001 0.00062817791 0.0011629091)
(0.17078232 -0.00048062133 0.0011617317)
(0.16300609 -0.0013675149 0.0012951753)
(0.14337014 -0.0016434212 0.0012453821)
(0.10686832 -0.0010701874 0.00083856965)
(0.12748002 0.0014618419 0.0011959125)
(0.16658091 0.0021152986 0.0016854101)
(0.1869202 0.0018119225 0.0017261188)
(0.19491913 0.00075510198 0.001557643)
(0.19495164 -0.00059930507 0.0015561138)
(0.18701834 -0.0016780233 0.0017209601)
(0.1667302 -0.0020227873 0.0016779458)
(0.12763354 -0.0014217372 0.0011848659)
(0.14791091 0.0018550838 0.0015861984)
(0.18909462 0.0025146916 0.0021598919)
(0.20920761 0.0021313745 0.0021771641)
(0.21706782 0.00087859489 0.0019827482)
(0.21709958 -0.00071803572 0.0019808803)
(0.20930419 -0.0019911709 0.0021710174)
(0.18924535 -0.0024133785 0.0021512159)
(0.1480734 -0.0018059918 0.001573383)
(0.0081036048 3.3732364e-05 1.8002173e-06)
(0.013651969 0.00010024359 5.3374561e-06)
(0.016828169 9.3155055e-05 6.7174738e-06)
(0.018187516 4.5119952e-05 5.7380816e-06)
(0.01819719 -1.0712679e-05 5.7338943e-06)
(0.016855701 -6.7737058e-05 6.6132014e-06)
(0.013686204 -9.019849e-05 5.2971718e-06)
(0.0081280675 -3.305015e-05 1.6013729e-06)
(0.02576384 0.00012215715 3.9208181e-05)
(0.04053576 0.00031129334 7.6029481e-05)
(0.049007595 0.00028980284 8.765799e-05)
(0.052629962 0.00013903316 7.873763e-05)
(0.052654788 -4.7783793e-05 7.8506712e-05)
(0.049079191 -0.0002203153 8.640694e-05)
(0.040628104 -0.00027985169 7.3617488e-05)
(0.025835648 -0.00011846826 3.6803177e-05)
(0.044511204 0.00024438591 0.00012070107)
(0.066767682 0.00053861881 0.00021330561)
(0.079523401 0.00049752337 0.00024026077)
(0.084958324 0.00023523229 0.0002180386)
(0.084994314 -9.8916593e-05 0.00021736656)
(0.079628224 -0.0003910863 0.00023717857)
(0.066907114 -0.00048557219 0.00020750071)
(0.044626753 -0.00023513518 0.00011439202)
(0.064085995 0.00040366686 0.0002499448)
(0.092292395 0.0007849404 0.00041417719)
(0.10839193 0.00071655519 0.0004580849)
(0.1152105 0.00033323012 0.00041852222)
(0.11525414 -0.00016248778 0.00041724761)
(0.1085202 -0.00058009466 0.00045271986)
(0.092468165 -0.0007110452 0.00040445784)
(0.064240157 -0.00038656066 0.00023860014)
(0.084227155 0.00060111987 0.00042677652)
(0.11706145 0.0010503336 0.00067045338)
(0.13562561 0.0009457774 0.00072953159)
(0.14342233 0.00043232206 0.00067025318)
(0.14347066 -0.0002364286 0.0006682908)
(0.13576882 -0.00078578175 0.00072172062)
(0.1172634 -0.00095709665 0.00065673215)
(0.084413772 -0.00057430457 0.00040986709)
(0.10466963 0.00083688828 0.00064999576)
(0.14104143 0.0013324508 0.00097342086)
(0.16123367 0.0011829102 0.0010432653)
(0.16962916 0.0005314513 0.00096355708)
(0.16967972 -0.00031824387 0.00096088628)
(0.16138462 -0.0010052399 0.0010330628)
(0.14126025 -0.0012219372 0.00095592608)
(0.104882 -0.00079895968 0.00062744208)
(0.12514106 0.0011088722 0.00091665352)
(0.16422711 0.0016266532 0.0013136823)
(0.18522119 0.0014246689 0.0013877742)
(0.19386724 0.0006292248 0.0012887143)
(0.19391808 -0.00040513571 0.0012853658)
(0.18537398 -0.0012344262 0.0013753951)
(0.16445452 -0.0015012881 0.0012929194)
(0.12537233 -0.0010589646 0.00088875484)
(0.14535722 0.0014064898 0.0012166533)
(0.18666306 0.0019288253 0.0016883762)
(0.20758434 0.0016669295 0.0017534126)
(0.21617521 0.00072400131 0.0016382497)
(0.21622483 -0.0004941779 0.0016342894)
(0.2077343 -0.0014684244 0.0017392366)
(0.18689183 -0.0017910823 0.0016650544)
(0.14560079 -0.0013446716 0.0011847757)
(0.0079456217 2.8355983e-05 2.056769e-06)
(0.013429292 8.646838e-05 4.4898753e-06)
(0.016617779 9.0562418e-05 5.6548404e-06)
(0.018015481 5.1382093e-05 5.0307533e-06)
(0.01803137 8.8190098e-08 4.9579678e-06)
(0.016665603 -5.229553e-05 5.124483e-06)
(0.013498274 -7.0661421e-05 2.5272383e-06)
(0.0079891078 -2.68994e-05 1.242058e-06)
(0.025282337 9.9436056e-05 3.566927e-05)
(0.039905393 0.00026531152 6.2919171e-05)
(0.048431427 0.00027107131 7.2845575e-05)
(0.052168606 0.00014962621 6.7670021e-05)
(0.052209249 -1.334002e-05 6.6953603e-05)
(0.048554066 -0.00016627886 6.9105201e-05)
(0.040065527 -0.00021198815 5.3746396e-05)
(0.025407126 -8.8445858e-05 2.846762e-05)
(0.04370905 0.00019690394 0.00010613358)
(0.065773786 0.00045410725 0.0001755146)
(0.078641415 0.0004521934 0.00019926738)
(0.084267235 0.0002428123 0.00018653853)
(0.084325916 -3.992768e-05 0.00018470093)
(0.078818573 -0.00029439763 0.00019062126)
(0.066007075 -0.0003735638 0.00015863816)
(0.043906767 -0.00018072979 8.9210397e-05)
(0.062974794 0.0003229137 0.00021501573)
(0.090983911 0.00065449124 0.00033942407)
(0.10726761 0.00063499845 0.00037954179)
(0.11435278 0.00033147409 0.00035697688)
(0.11442362 -7.8401129e-05 0.00035378002)
(0.10748166 -0.00043455456 0.00036546446)
(0.091272528 -0.00054752776 0.00031384272)
(0.063234577 -0.00029863161 0.00018564034)
(0.082827703 0.00047798165 0.00036101837)