/*--------------------------------*- C++ -*----------------------------------*\
  =========                 |
  \\      /  F ield         | OpenFOAM: The Open Source CFD Toolbox
   \\    /   O peration     | Website:  https://openfoam.org
    \\  /    A nd           | Version:  13
     \\/     M anipulation  |
\*---------------------------------------------------------------------------*/
FoamFile
{
    format      ascii;
    class       volVectorField;
    location    "0.11";
    object      U;
}
// * * * * * * * * * * * * * * * * * * * * * * * * * * * * * * * * * * * * * //

dimensions      [0 1 -1 0 0 0 0];

internalField   nonuniform List<vector> 
51200
(
(0.040267892 0.013880552 0.0087659338)
(0.048885674 0.0148479 0.01156133)
(0.0492285 0.0055934781 0.011751531)
(0.047734007 -0.00027999148 0.011566623)
(0.047735972 0.00028128741 0.01156796)
(0.049233023 -0.0056187874 0.011749152)
(0.048888903 -0.014952454 0.011565569)
(0.040263235 -0.013946633 0.0087218823)
(0.10086349 0.1042323 0.031403179)
(0.11689672 0.062503944 0.042627605)
(0.11734875 0.020816397 0.039651176)
(0.11418761 0.00086762741 0.036147514)
(0.11419152 -0.00090237642 0.036152517)
(0.11735901 -0.020922276 0.039665281)
(0.11690219 -0.062775958 0.042693407)
(0.10084895 -0.1047231 0.031289601)
(0.14357176 0.10975336 0.034613898)
(0.15977707 0.050668011 0.057253608)
(0.15987357 0.01662981 0.053215547)
(0.15606324 -0.00022535632 0.046664866)
(0.15606705 0.00021958687 0.046675712)
(0.15988264 -0.016724923 0.053239672)
(0.15977593 -0.050901336 0.05736537)
(0.14355294 -0.11021495 0.034397972)
(0.17354875 0.10269025 0.045335431)
(0.18617818 0.03837104 0.075706468)
(0.18581538 0.013607393 0.065044743)
(0.18201556 6.8238762e-05 0.053983187)
(0.18201864 -2.0173944e-05 0.054003402)
(0.18582095 -0.013654706 0.065094404)
(0.18616907 -0.038512884 0.075868154)
(0.17353424 -0.10302948 0.045114212)
(0.1939767 0.084759097 0.047840672)
(0.20183007 0.023597688 0.082272227)
(0.20137038 0.010094237 0.067646884)
(0.19800827 0.00067197322 0.054288008)
(0.1980109 -0.00059131887 0.054318245)
(0.20137277 -0.010086067 0.067718713)
(0.20181523 -0.023646128 0.082458971)
(0.19396857 -0.084976204 0.047634266)
(0.20761205 0.067782929 0.052795585)
(0.21036405 0.012366991 0.088066404)
(0.20972172 0.0093272 0.072361594)
(0.20685904 0.0025660606 0.059327902)
(0.20686194 -0.0024713904 0.059359202)
(0.20972318 -0.0092601502 0.072433391)
(0.21034727 -0.012323125 0.088248105)
(0.20761279 -0.06793503 0.052651342)
(0.21552856 0.055795364 0.060826928)
(0.21381585 0.010199465 0.090948098)
(0.21373796 0.011986806 0.06858833)
(0.21179744 0.0046848539 0.05430916)
(0.21180081 -0.0046650092 0.054350406)
(0.21373811 -0.01194685 0.068685711)
(0.21379774 -0.010130408 0.091142154)
(0.21553717 -0.055892527 0.060765877)
(0.21917865 0.043650049 0.06456557)
(0.21489558 0.0087422605 0.080346756)
(0.21585182 0.027765789 0.05557901)
(0.21464206 0.014897199 0.046363778)
(0.21464437 -0.014921172 0.046402411)
(0.21584726 -0.027665879 0.055672961)
(0.21487144 -0.0085777375 0.080565053)
(0.21918691 -0.043789689 0.064622615)
(0.029527747 0.008699355 -0.0030310514)
(0.038511623 0.010399234 0.00066454292)
(0.039072595 -0.00058404852 0.00079421224)
(0.036856279 -0.0034108284 0.00018635915)
(0.036859878 0.0034329121 0.00018797858)
(0.039079726 0.00055683382 0.00079264118)
(0.038517329 -0.010533724 0.00066838556)
(0.029537431 -0.0087914319 -0.00307652)
(0.082347955 0.095102825 0.00058855996)
(0.1012857 0.051798069 0.01752463)
(0.10167296 0.0051027116 0.013173813)
(0.096592429 -0.0068610525 0.007118856)
(0.096599145 0.0068823619 0.0071295357)
(0.1016886 -0.005214253 0.013200289)
(0.10129883 -0.052169438 0.017600476)
(0.082362982 -0.095674969 0.00046971791)
(0.12464947 0.090120114 -0.0061652749)
(0.14491929 0.027526262 0.029115277)
(0.14389883 -0.0079726497 0.02160861)
(0.13746616 -0.011179971 0.0095655667)
(0.13747095 0.011253409 0.0095893311)
(0.14390558 0.0078727419 0.021661131)
(0.14491992 -0.027886292 0.029245808)
(0.1246524 -0.090669236 -0.0064161195)
(0.15832609 0.074802672 0.0039301253)
(0.17543153 0.0047991161 0.052606434)
(0.17269373 -0.01698116 0.034767122)
(0.16581996 -0.012632678 0.014908539)
(0.16582134 0.012766972 0.014951641)
(0.17268562 0.016926299 0.034867972)
(0.17541479 -0.0050849523 0.052810116)
(0.15831508 -0.075226707 0.0036432783)
(0.18487779 0.049120555 0.0099563327)
(0.19758062 -0.018611938 0.065969058)
(0.19366701 -0.02399392 0.040410039)
(0.18686653 -0.012659074 0.015369041)
(0.18686607 0.012816315 0.015432316)
(0.19364851 0.023988141 0.040558742)
(0.19755284 0.018413588 0.066222725)
(0.1848559 -0.049423719 0.0096617695)
(0.20535143 0.025798004 0.021855907)
(0.21334589 -0.03544873 0.079315769)
(0.20863994 -0.025514916 0.049070446)
(0.20211215 -0.010306249 0.022429749)
(0.20211114 0.010449043 0.022504216)
(0.20861508 0.025551771 0.049244163)
(0.21331036 0.035340686 0.079589691)
(0.20531872 -0.026056944 0.021636772)
(0.22033296 0.0097217062 0.038747492)
(0.22458007 -0.038601239 0.089543369)
(0.22047534 -0.020335421 0.048655305)
(0.21494234 -0.0066834835 0.019493616)
(0.21494283 0.0066980765 0.019586508)
(0.22044789 0.020307526 0.048874835)
(0.22453682 0.038506099 0.08985527)
(0.2202864 -0.0099539367 0.038632677)
(0.23127307 -0.0033702287 0.05150417)
(0.23307057 -0.036846762 0.082398226)
(0.22907989 0.0026581376 0.035489394)
(0.22416664 0.0071620302 0.011826795)
(0.22416811 -0.0072728842 0.011920499)
(0.22905019 -0.0026820684 0.035716503)
(0.23302057 0.036829705 0.082761248)
(0.23120988 0.003069546 0.051540633)
(0.01307156 0.0078631625 -0.0045357613)
(0.019731728 0.0085023372 -0.00058143737)
(0.020742628 -0.0034919596 -0.00034301307)
(0.019636552 -0.0050020979 -0.0010229902)
(0.019638326 0.0050273873 -0.0010212172)
(0.02074637 0.0034610339 -0.00034449282)
(0.019738387 -0.0086431356 -0.00057904728)
(0.01310073 -0.0079459107 -0.004583527)
(0.044331824 0.098400365 -0.0040130121)
(0.060433413 0.048342229 0.014574384)
(0.06210677 -0.0023157215 0.009617669)
(0.059330704 -0.010910177 0.0024448411)
(0.05933194 0.010936374 0.0024584704)
(0.062111242 0.0021898172 0.0096500666)
(0.060444555 -0.048766738 0.01465076)
(0.044389664 -0.098945058 -0.0041322424)
(0.073301232 0.087665621 -0.015111518)
(0.092018556 0.016319026 0.024098529)
(0.092587486 -0.020723109 0.015110623)
(0.088801136 -0.017218467 0.00051354331)
(0.088795023 0.017284668 0.00054444087)
(0.092566876 0.020591729 0.015178132)
(0.091997379 -0.016767165 0.024231346)
(0.073340199 -0.088179646 -0.015387451)
(0.10010362 0.066084441 -0.0067564932)
(0.11801399 -0.013226795 0.047393569)
(0.11711405 -0.033589625 0.026116173)
(0.11283681 -0.019884569 0.0018364517)
(0.11282145 0.019990093 0.0018906487)
(0.11705968 0.033482386 0.026244489)
(0.11794818 0.012824722 0.047610826)
(0.10010401 -0.066493303 -0.0070709806)
(0.12474394 0.033725716 -0.0019408369)
(0.14127917 -0.04248847 0.060419426)
(0.13976232 -0.043145176 0.029433305)
(0.13545506 -0.020544046 -0.0018635238)
(0.13543319 0.020647651 -0.001784298)
(0.1396821 0.043067144 0.029626154)
(0.14117689 0.04215887 0.060700497)
(0.12470364 -0.034034349 -0.0022718987)
(0.14695862 0.0047513928 0.010372855)
(0.16211665 -0.063247082 0.074355426)
(0.16067778 -0.045649036 0.036721816)
(0.15661868 -0.018184687 0.0025455779)
(0.15659226 0.018244994 0.0026404185)
(0.1605773 0.045595612 0.036953846)
(0.16198154 0.063003525 0.07466888)
(0.14687128 -0.00502816 0.010102088)
(0.16634669 -0.015145819 0.029236831)
(0.18117229 -0.067540785 0.085510232)
(0.18154778 -0.039816053 0.034332303)
(0.17863633 -0.014025873 -0.0033925891)
(0.17860951 0.013926472 -0.0032707895)
(0.18143797 0.039672148 0.034626196)
(0.18100971 0.067294879 0.085881211)
(0.16620321 0.014861259 0.029074961)
(0.1835355 -0.030667741 0.044140088)
(0.19895203 -0.065348146 0.077626714)
(0.20054043 -0.013425046 0.018589594)
(0.19837702 0.001896652 -0.012777848)
(0.19834943 -0.0021582285 -0.012657028)
(0.20042179 0.013251906 0.018894379)
(0.19876451 0.065170667 0.078060995)
(0.18333645 0.030287982 0.044146228)
(0.011333235 0.007912015 -0.0048449822)
(0.017092238 0.0073347918 -0.00061719029)
(0.018044872 -0.0055803411 -0.00042709394)
(0.017451141 -0.006074347 -0.0011185205)
(0.017447838 0.0061018319 -0.0011170631)
(0.018037227 0.0055451059 -0.0004284415)
(0.017092616 -0.0074763311 -0.00061786828)
(0.011369644 -0.0079804456 -0.0048954381)
(0.038453804 0.10532182 -0.0052908241)
(0.052597393 0.04767338 0.014436125)
(0.054457303 -0.0070867936 0.0085089155)
(0.053050472 -0.013557394 0.00066940131)
(0.053037265 0.013583736 0.00068479043)
(0.054428221 0.0069437372 0.0085468994)
(0.052584832 -0.048143116 0.014509039)
(0.038524224 -0.10581037 -0.0054036025)
(0.063095464 0.090878737 -0.019476023)
(0.079439404 0.0092950928 0.022223498)
(0.080629282 -0.029545196 0.011319347)
(0.078830391 -0.021317297 -0.0047403543)
(0.078799676 0.021363113 -0.0047052689)
(0.080546921 0.029370491 0.01139869)
(0.079361617 -0.009831617 0.022351179)
(0.063127681 -0.091322789 -0.019779024)
(0.085947278 0.064147045 -0.012961084)
(0.10173994 -0.025957678 0.044293243)
(0.10212513 -0.045304052 0.019252633)
(0.10032725 -0.024936085 -0.0076723716)
(0.10027738 0.024992223 -0.0076094563)
(0.10198053 0.045121724 0.019402947)
(0.10157977 0.025426731 0.044514145)
(0.08590967 -0.064498056 -0.01332428)
(0.10738857 0.025430313 -0.010765926)
(0.12269848 -0.060343163 0.054669171)
(0.12335118 -0.05685543 0.018337386)
(0.12196259 -0.026179907 -0.016361715)
(0.12189838 0.026210217 -0.016268336)
(0.12315791 0.056677982 0.018566288)
(0.12246974 0.059858588 0.054966277)
(0.10727665 -0.025698506 -0.011162149)
(0.12738854 -0.009427301 -0.00058258552)
(0.1426952 -0.084663355 0.066109501)
(0.14445923 -0.06009781 0.02204056)
(0.14373937 -0.023916286 -0.01605331)
(0.14366434 0.023881956 -0.015938073)
(0.14422768 0.059927827 0.022326245)
(0.14240572 0.08425917 0.066449179)
(0.12719531 0.0091815485 -0.00093329562)
(0.14565779 -0.033777318 0.016876826)
(0.16236334 -0.090060145 0.074627127)
(0.16705479 -0.05369966 0.015254402)
(0.16787162 -0.019454249 -0.026890813)
(0.16779305 0.019248011 -0.026747492)
(0.16680619 0.053426159 0.015605509)
(0.16202737 0.089635813 0.075037689)
(0.14537454 0.033490666 0.016632006)
(0.16290352 -0.052708272 0.030350164)
(0.18208829 -0.087812299 0.062771026)
(0.18898938 -0.02441062 -0.0047731129)
(0.19088187 -0.0017689767 -0.04194425)
(0.19079944 0.0013788777 -0.041791127)
(0.18872469 0.024087432 -0.0043979075)
(0.18171058 0.087441885 0.063242586)
(0.16253256 0.052305426 0.03028297)
(0.0091023531 0.0083561951 -0.0053576594)
(0.014387104 0.0071182894 -0.00076931205)
(0.015730692 -0.006986662 -0.00058802021)
(0.015520965 -0.0069360554 -0.0013104867)
(0.01551104 0.0069585472 -0.0013085105)
(0.015707295 0.0069467359 -0.00058934034)
(0.014376784 -0.00725371 -0.00077368993)
(0.0091430479 -0.0084110294 -0.005408522)
(0.032064115 0.11361129 -0.006198745)
(0.045330892 0.049584625 0.015137917)
(0.048350605 -0.01009172 0.0084485778)
(0.048002098 -0.015644133 -0.00010938829)
(0.0479707 0.015652411 -9.2462292e-05)
(0.048278058 0.009929648 0.0084874017)
(0.045286562 -0.050089578 0.015205411)
(0.032143038 -0.11402525 -0.006297513)
(0.05310939 0.096813677 -0.022324696)
(0.068655436 0.0062018693 0.022727697)
(0.071792247 -0.035800185 0.010307107)
(0.071633208 -0.024601398 -0.0072905898)
(0.071572113 0.024597799 -0.0072530961)
(0.071634366 0.035573039 0.010388395)
(0.068508748 -0.0068269218 0.022850906)
(0.053127516 -0.097171929 -0.022649349)
(0.073008149 0.066529311 -0.016074068)
(0.088421782 -0.033711914 0.045503036)
(0.091566206 -0.05390176 0.017283659)
(0.091933737 -0.028982383 -0.012290001)
(0.091842129 0.028951884 -0.012224415)
(0.091314598 0.053628584 0.01743577)
(0.088150812 0.033043636 0.04572732)
(0.072920954 -0.066817311 -0.016485173)
(0.092178634 0.023048637 -0.014745346)
(0.10777341 -0.072461343 0.055200907)
(0.11200181 -0.06707165 0.014298073)
(0.11325972 -0.030680686 -0.023841689)
(0.11314478 0.030596261 -0.023744076)
(0.11167609 0.066774159 0.014535658)
(0.10739844 0.071810291 0.055513793)
(0.091982236 -0.023279094 -0.015214439)
(0.1106285 -0.016278952 -0.0049850572)
(0.12707654 -0.099878764 0.065868221)
(0.13320914 -0.070907473 0.016164077)
(0.135554 -0.028477067 -0.025728404)
(0.13542114 0.028308079 -0.025607269)
(0.13282519 0.070599147 0.016461725)
(0.12661079 0.099308354 0.066232695)
(0.11031574 0.016058809 -0.0054296178)
(0.12810885 -0.043878292 0.012665519)
(0.146937 -0.10622175 0.073215051)
(0.15667379 -0.063896738 0.0069129865)
(0.16093373 -0.023700796 -0.039630784)
(0.16079384 0.023358353 -0.039480234)
(0.15626248 0.063467636 0.0072859148)
(0.14640529 0.10562226 0.073659978)
(0.12767441 0.043581671 0.012319547)
(0.14538213 -0.065262551 0.025973005)
(0.16773616 -0.1039191 0.058237548)
(0.18025836 -0.031657432 -0.017491617)
(0.18595799 -0.0042668117 -0.058737342)
(0.18581136 0.0037303781 -0.05857647)
(0.1798237 0.031144617 -0.017094452)
(0.16714624 0.10335785 0.058733614)
(0.14483168 0.064838664 0.025803526)
(0.0085530897 0.0089118038 -0.0057483473)
(0.013650427 0.0071168473 -0.0008124622)
(0.015306115 -0.008199617 -0.00064884196)
(0.015447066 -0.0077133831 -0.0014176557)
(0.015430486 0.0077309003 -0.0014157222)
(0.015269357 0.0081558493 -0.00065217455)
(0.01362551 -0.0072415454 -0.00081956797)
(0.008591206 -0.0089478332 -0.0058018461)
(0.030001749 0.12192083 -0.0067704624)
(0.042900713 0.052015349 0.016140548)
(0.046904112 -0.012581934 0.008755618)
(0.04753285 -0.017499549 -0.00052579654)
(0.047483682 0.017491096 -0.0005090315)
(0.046794736 0.012406467 0.0087893766)
(0.042818837 -0.052541626 0.016201997)
(0.03008034 -0.12224004 -0.00685589)
(0.049662777 0.10317346 -0.024502676)
(0.065050461 0.0041879397 0.023885506)
(0.069911267 -0.041187616 0.010113099)
(0.071270206 -0.027521615 -0.0090105937)
(0.071181044 0.027465573 -0.0089742664)
(0.069690815 0.040907092 0.010186717)
(0.064833457 -0.0048916619 0.02399727)
(0.049663634 -0.10341935 -0.024858903)
(0.068338309 0.06977812 -0.018245229)
(0.084012995 -0.039912031 0.047739725)
(0.089603653 -0.061353722 0.016677601)
(0.091952968 -0.032559782 -0.015511371)
(0.091824282 0.03243424 -0.015449303)
(0.089265098 0.060979976 0.016817243)
(0.083636894 0.039106931 0.047954136)
(0.068205935 -0.069977161 -0.018723491)
(0.08646415 0.021984221 -0.017461288)
(0.10280014 -0.08260706 0.057223121)
(0.11010641 -0.07594727 0.012190335)
(0.11372162 -0.034632037 -0.02929839)
(0.11356252 0.034423068 -0.029205088)
(0.10967421 0.075515837 0.012415489)
(0.10229035 0.081781951 0.057532346)
(0.08619347 -0.022147502 -0.018036455)
(0.10408419 -0.021389007 -0.0077519803)
(0.12180068 -0.11279804 0.067553641)
(0.13153251 -0.080278851 0.012786146)
(0.13654199 -0.03240769 -0.032796587)
(0.13635968 0.032095942 -0.032679829)
(0.13102674 0.079817936 0.013078475)
(0.12117564 0.112049 0.067917512)
(0.10366865 0.021230581 -0.00833576)
(0.12100707 -0.051954463 0.010330973)
(0.14160982 -0.1198786 0.074135886)
(0.15528357 -0.072770224 0.0013270191)
(0.16240248 -0.027216194 -0.04914367)
(0.16221056 0.026739129 -0.048997997)
(0.15474287 0.072183293 0.0017069558)
(0.14090263 0.11909155 0.074581715)
(0.12044645 0.051689139 0.0098229417)
(0.13800094 -0.075596941 0.02367182)
(0.16263755 -0.11742534 0.056547342)
(0.17938553 -0.037708138 -0.026728154)
(0.18811459 -0.0060048446 -0.07160731)
(0.1879139 0.0053317606 -0.071452407)
(0.1788124 0.037006659 -0.026328677)
(0.16185786 0.11665128 0.057027389)
(0.13730119 0.075195199 0.02332571)
(0.0080348118 0.0094978945 -0.0061277584)
(0.013051708 0.0073077573 -0.00087043925)
(0.015089043 -0.0092046991 -0.00071143203)
(0.015610957 -0.0084017658 -0.0015270384)
(0.015588728 0.0084091223 -0.0015250081)
(0.015040712 0.0091528758 -0.00071446511)
(0.013014279 -0.0074232294 -0.00087936465)
(0.0080688834 -0.0095246716 -0.0061820824)
(0.028077101 0.12972444 -0.0072606117)
(0.040935624 0.054774833 0.017155762)
(0.04609924 -0.01458792 0.009182888)
(0.04777346 -0.019138847 -0.00077678947)
(0.04770959 0.019100325 -0.00076153218)
(0.045958917 0.014393721 0.0092135385)
(0.040822841 -0.055314032 0.017211971)
(0.028179695 -0.12996725 -0.0073296847)
(0.046741902 0.10940588 -0.02630802)
(0.062570845 0.0031233626 0.025297439)
(0.069395361 -0.045730548 0.010373958)
(0.072337365 -0.030104013 -0.010191781)
(0.072226784 0.029977389 -0.010158946)
(0.069127662 0.045388688 0.010437705)
(0.062301626 -0.0039010005 0.025404509)
(0.046771531 -0.10955749 -0.026694585)
(0.064729981 0.073419976 -0.019790223)
(0.081485877 -0.044655301 0.050527459)
(0.089757012 -0.067710015 0.016974432)
(0.094106236 -0.035712418 -0.017686806)
(0.093950908 0.035472019 -0.01763214)
(0.089357314 0.067222995 0.017092592)
(0.08103739 0.043709718 0.050741112)
(0.064617026 -0.073541104 -0.020334286)
(0.082392572 0.021924023 -0.019157185)
(0.10037755 -0.090864069 0.060310921)
(0.11089176 -0.083553335 0.011592015)
(0.11680312 -0.038091664 -0.033081025)
(0.11661285 0.037739527 -0.032996909)
(0.1103866 0.082973922 0.011793687)
(0.099776372 0.089860492 0.060622347)
(0.082116726 -0.022032509 -0.019834778)
(0.099742303 -0.024940235 -0.0090635854)
(0.11960422 -0.12353732 0.070872133)
(0.13289653 -0.088297545 0.011478039)
(0.14038676 -0.035809512 -0.037585186)
(0.14016959 0.035340809 -0.037479139)
(0.1323075 0.087669859 0.011753247)
(0.11887153 0.12260928 0.071237343)
(0.099295677 0.024812136 -0.0097657621)
(0.11660444 -0.058045524 0.0098970676)
(0.13970347 -0.13129096 0.077315354)
(0.15702217 -0.080271376 -0.0015472919)
(0.16663298 -0.030205142 -0.055720061)
(0.16640321 0.029586431 -0.05558742)
(0.15638757 0.079521411 -0.0011959852)
(0.13887405 0.13031994 0.077755382)
(0.11598896 0.057773263 0.0092488093)
(0.13370179 -0.083594062 0.023745062)
(0.16109772 -0.12867151 0.057839808)
(0.18153385 -0.04258646 -0.032415833)
(0.19271849 -0.0073517452 -0.080790507)
(0.19247788 0.0065400789 -0.080650845)
(0.18085805 0.041697436 -0.032066298)
(0.16018339 0.12768978 0.058284928)
(0.13292328 0.083191898 0.023225282)
(0.007770208 0.010101394 -0.0064355415)
(0.01273912 0.007556058 -0.00091015589)
(0.015191794 -0.01006665 -0.00075123502)
(0.016112527 -0.0090068898 -0.0016119208)
(0.016087776 0.0090036605 -0.0016101812)
(0.015136366 0.010007439 -0.00075582608)
(0.01270092 -0.0077011069 -0.0009158958)
(0.0078024064 -0.010133726 -0.0065135774)
(0.026686454 0.13654965 -0.0076091006)
(0.039666908 0.057401787 0.018085947)
(0.046093392 -0.016283302 0.0096207784)
(0.048855864 -0.020568489 -0.00094513064)
(0.04878541 0.020501809 -0.00093232958)
(0.045933422 0.016077707 0.0096457295)
(0.039542283 -0.057927296 0.018155042)
(0.02680342 -0.13669547 -0.0077297282)
(0.044734411 0.11508758 -0.027615758)
(0.061325292 0.0024997826 0.02662586)
(0.070263666 -0.049646118 0.010746117)
(0.074834611 -0.032367225 -0.011105577)
(0.074716503 0.03217431 -0.011078524)
(0.069974923 0.049251836 0.010798299)
(0.061048337 -0.0033087294 0.026754651)
(0.044780961 -0.11509546 -0.028201748)
(0.062444752 0.076994201 -0.020743323)
(0.080736605 -0.048472237 0.053156358)
(0.091838829 -0.073220493 0.017491027)
(0.098207604 -0.038482596 -0.019378787)
(0.098044903 0.038134926 -0.019334932)
(0.091420981 0.072635082 0.017585878)
(0.080287924 0.047449281 0.053402455)
(0.062340122 -0.076914148 -0.02153946)
(0.080034077 0.022338237 -0.020131104)
(0.10017798 -0.097757337 0.063350586)
(0.11398972 -0.090153735 0.01146436)
(0.12215903 -0.04112855 -0.036070488)
(0.1219604 0.040642771 -0.036000921)
(0.11346607 0.089441833 0.011630627)
(0.099577721 0.096636095 0.063695214)
(0.07976312 -0.022215279 -0.021092122)
(0.097461837 -0.027569567 -0.0096093718)
(0.11995934 -0.13262517 0.074290835)
(0.13679022 -0.095237213 0.010902573)
(0.14663918 -0.038788718 -0.041336716)
(0.14641197 0.038172404 -0.041248551)
(0.13617987 0.094461862 0.011122971)
(0.11922471 0.13156529 0.074681982)
(0.097018487 0.027645747 -0.010605691)
(0.11455747 -0.062932908 0.01022471)
(0.1405368 -0.14098762 0.080822063)
(0.16129631 -0.086702092 -0.0033042857)
(0.17315968 -0.032807184 -0.060902218)
(0.17291594 0.032053894 -0.060790284)
(0.16062993 0.085809886 -0.0030201052)
(0.13969404 0.13987454 0.081271294)
(0.11393379 0.062801146 0.0092808253)
(0.13194537 -0.09018559 0.024652744)
(0.16233082 -0.13821169 0.059918339)
(0.18606768 -0.046692764 -0.036480766)
(0.19935897 -0.0084978198 -0.088119295)
(0.19910166 0.0075594088 -0.088002578)
(0.18535433 0.045637134 -0.036200163)
(0.1613919 0.13706429 0.060341914)
(0.13115286 0.089895595 0.02382828)
(0.0075095545 0.01046101 -0.0066934933)
(0.012416165 0.0078768805 -0.00094878291)
(0.015459993 -0.010760458 -0.00080081034)
(0.016758891 -0.009525734 -0.001690087)
(0.016732445 0.0095094099 -0.0016883095)
(0.01539323 0.010698438 -0.00080521031)
(0.012391436 -0.007962577 -0.00096419343)
(0.0075679116 -0.010485085 -0.0067516939)
(0.025560448 0.14219275 -0.0078924847)
(0.038436738 0.059892959 0.01882902)
(0.046438412 -0.017647565 0.0099468793)
(0.050274241 -0.021796526 -0.0010921219)
(0.050199375 0.021694114 -0.0010809277)
(0.046254157 0.017431576 0.0099668322)
(0.038295628 -0.060430019 0.018878975)
(0.025590267 -0.14222342 -0.0079497709)
(0.043240372 0.12038245 -0.028257921)
(0.06033002 0.0024377271 0.0276926)
(0.071775466 -0.052892526 0.011017911)
(0.077962754 -0.034307076 -0.011861269)
(0.077841991 0.034047785 -0.011837758)
(0.071467287 0.052461425 0.011059989)
(0.060034372 -0.0032792638 0.0278)
(0.043133436 -0.12008448 -0.02886008)
(0.060855965 0.080897132 -0.020881062)
(0.080514138 -0.05113911 0.055349701)
(0.094845861 -0.077829228 0.017923827)
(0.10322477 -0.040854704 -0.020754036)
(0.10306289 0.040411427 -0.020717303)
(0.094421367 0.077178058 0.018000666)
(0.080058309 0.050055598 0.055567708)
(0.060593247 -0.080519984 -0.02176355)
(0.078504917 0.023796874 -0.020169374)
(0.10075928 -0.10298415 0.065990528)
(0.11820716 -0.095680537 0.011438986)
(0.12861763 -0.043724523 -0.038485566)
(0.12842188 0.043125832 -0.038426027)
(0.11768668 0.094882869 0.01158245)
(0.10017223 0.10178746 0.066301697)
(0.078108385 -0.023422231 -0.021269984)
(0.096136476 -0.028636532 -0.0092452162)
(0.12131037 -0.13971934 0.077386657)
(0.14192033 -0.10103698 0.010609658)
(0.15407913 -0.041331844 -0.044338835)
(0.15385574 0.040596403 -0.044263906)
(0.14132093 0.10016671 0.010802699)
(0.12060791 0.13857668 0.07773387)
(0.095607544 0.028949649 -0.010429693)
(0.11358773 -0.065980739 0.011356651)
(0.14252053 -0.14865615 0.084163923)
(0.16681362 -0.092044953 -0.0044633046)
(0.18081848 -0.035019502 -0.065029957)
(0.18057538 0.034159298 -0.064933981)
(0.16615452 0.091058703 -0.0042133)
(0.14171543 0.14743925 0.084555976)
(0.11291214 0.066038488 0.010199701)
(0.13136764 -0.094778931 0.026323008)
(0.16478745 -0.14579165 0.062247604)
(0.19177265 -0.050090456 -0.039464456)
(0.20699941 -0.0094789896 -0.093977355)
(0.20674105 0.0084453706 -0.093879737)
(0.19106572 0.04893048 -0.039223702)
(0.16388838 0.14453583 0.062590918)
(0.13055578 0.094627088 0.025300065)
(0.0074290321 0.010635296 -0.0070203822)
(0.012251373 0.0081019589 -0.00094627391)
(0.016618943 -0.011795841 -0.00094581727)
(0.017610915 -0.010128338 -0.0017642098)
(0.017582092 0.010090169 -0.0017640324)
(0.016545405 0.011585155 -0.00093130574)
(0.012146259 -0.0081895536 -0.00099620803)
(0.0073775492 -0.010690321 -0.0070083823)
(0.025037449 0.14550831 -0.0084097954)
(0.037486273 0.061405703 0.019495087)
(0.04787489 -0.019650709 0.0099780368)
(0.052145362 -0.023106931 -0.0012915409)
(0.052065204 0.022951631 -0.0012792451)
(0.047669369 0.019453553 0.010027614)
(0.037217577 -0.062072012 0.01951134)
(0.024789031 -0.14612168 -0.0082982269)
(0.042561944 0.1234259 -0.029388272)
(0.059734537 0.0021212588 0.028600022)
(0.07439579 -0.056557943 0.010960625)
(0.081777935 -0.036176025 -0.012617023)
(0.081653582 0.035828129 -0.012593106)
(0.074077393 0.056069962 0.011003647)
(0.059358363 -0.0031429084 0.028724427)
(0.042170006 -0.12351155 -0.02970569)
(0.060081225 0.083341698 -0.021485232)
(0.080786342 -0.05330741 0.057177978)
(0.098952571 -0.082469354 0.018000084)
(0.1091163 -0.043023039 -0.022073497)
(0.10895501 0.042468703 -0.022036429)
(0.098537887 0.081713167 0.018073946)
(0.0803552 0.051998929 0.057410675)
(0.059650057 -0.083125779 -0.022152581)
(0.077805888 0.024445147 -0.020494395)
(0.10193054 -0.1071399 0.068200822)
(0.12347995 -0.10084883 0.011149574)
(0.13604272 -0.04602254 -0.040672927)
(0.1358513 0.045305244 -0.040612334)
(0.12298241 0.099951463 0.011288553)
(0.10141861 0.10571211 0.06850438)
(0.07732647 -0.0242237 -0.021467538)
(0.095655498 -0.029755052 -0.0091688516)
(0.12332812 -0.14538041 0.080017924)
(0.14805252 -0.10621796 0.010142271)
(0.16249125 -0.043542243 -0.047022182)
(0.16227504 0.042691406 -0.046946652)
(0.147483 0.10525843 0.010336867)
(0.12272793 0.14404005 0.080328012)
(0.095110538 0.029983388 -0.010286695)
(0.1134654 -0.068479423 0.012173985)
(0.14522167 -0.15479085 0.087053405)
(0.17324458 -0.096700755 -0.0055617237)
(0.18934907 -0.036920402 -0.068587974)
(0.18911239 0.035954326 -0.06849182)
(0.17261278 0.09562626 -0.0053062195)
(0.14452661 0.15338964 0.087404217)
(0.11283529 0.068483008 0.011016533)
(0.13164605 -0.098406554 0.027688667)
(0.16797289 -0.15184047 0.064402959)
(0.1982733 -0.053088531 -0.041949013)
(0.21536119 -0.010369813 -0.098903053)
(0.21510942 0.0092461558 -0.098807713)
(0.19759414 0.051851688 -0.041704224)
(0.1671826 0.15043027 0.064692205)
(0.13092074 0.09821128 0.026638732)
(0.0074877214 0.01117239 -0.0071400225)
(0.012262966 0.0080237069 -0.0010362192)
(0.018613745 -0.012934099 -0.00088888611)
(0.018394949 -0.010961478 -0.0018701837)
(0.018369622 0.010886826 -0.001868577)
(0.018578087 0.012797039 -0.00090038424)
(0.012055033 -0.008180414 -0.0010406826)
(0.0073673967 -0.011015237 -0.0072375132)
(0.024421015 0.14921361 -0.0084854845)
(0.036922863 0.060581507 0.020096947)
(0.050334829 -0.02392255 0.010497839)
(0.053842072 -0.02472327 -0.0016337643)
(0.053765881 0.024462198 -0.0016173991)
(0.050205104 0.023480579 0.010501327)
(0.036501126 -0.06131827 0.020123226)
(0.024221003 -0.14860278 -0.0086628512)
(0.041593844 0.12625985 -0.029799975)
(0.059605675 0.00049516044 0.029865097)
(0.077844475 -0.06229058 0.011259282)
(0.085461705 -0.038108833 -0.013553439)
(0.085339634 0.037618328 -0.013516946)
(0.077626117 0.061563559 0.01127968)
(0.059180749 -0.0018026561 0.029830894)
(0.041397414 -0.12573322 -0.030554774)
(0.059075405 0.085123188 -0.021499701)
(0.081604414 -0.055943334 0.059371549)
(0.10365135 -0.088419541 0.018406544)
(0.11496656 -0.044993392 -0.023611992)
(0.11480611 0.044287041 -0.023552456)
(0.10334963 0.08748265 0.018482814)
(0.081282647 0.054165254 0.059389106)
(0.058880013 -0.084735492 -0.0224937)
(0.077006262 0.024643415 -0.020225489)
(0.10369639 -0.11108674 0.070808685)
(0.12916084 -0.10647656 0.011199208)
(0.14348507 -0.047949752 -0.042952008)
(0.14329388 0.047080999 -0.042863337)
(0.12877318 0.1054442 0.011368024)
(0.10338946 0.10917271 0.070865689)
(0.076798303 -0.024322249 -0.021495294)
(0.095226265 -0.031019431 -0.0084862533)
(0.12595266 -0.15026069 0.082964791)
(0.15444659 -0.11127362 0.009972769)
(0.1709419 -0.045319597 -0.049725779)
(0.17072662 0.044323679 -0.049622001)
(0.15397403 0.11018515 0.01022073)
(0.12557249 0.14853071 0.083067085)
(0.094973603 0.031211486 -0.0099413007)
(0.11353134 -0.07080401 0.013443985)
(0.14850521 -0.15986801 0.090188765)
(0.17982236 -0.10094654 -0.0062083915)
(0.19787479 -0.03841372 -0.071906819)
(0.19764072 0.037312466 -0.071782801)
(0.17927613 0.09975174 -0.0058783042)
(0.14801533 0.15819217 0.090364199)
(0.11320681 0.070689888 0.011970107)
(0.13222032 -0.10148437 0.029439806)
(0.17168983 -0.15671609 0.066984216)
(0.20483115 -0.055885409 -0.043623858)
(0.22365314 -0.011100589 -0.10322287)
(0.22340691 0.0098618077 -0.10310303)
(0.20422889 0.054553377 -0.043289875)
(0.17108695 0.15511138 0.067130711)
(0.13180178 0.10116945 0.02808239)
(0.0073943573 0.011547012 -0.0071125029)
(0.01220266 0.0082426566 -0.0012051045)
(0.019402991 -0.012066454 -0.00071510956)
(0.018843294 -0.0114566 -0.0019270434)
(0.018812518 0.011378891 -0.0019282452)
(0.019375237 0.012211011 -0.00074452656)
(0.012227011 -0.0080561551 -0.0012068555)
(0.0073985563 -0.011173383 -0.0072156059)
(0.023508431 0.15084963 -0.0082790839)
(0.036278485 0.060045492 0.020003244)
(0.052047661 -0.024220626 0.011779784)
(0.054770583 -0.025736854 -0.0017509871)
(0.054684889 0.025424535 -0.0017471272)
(0.051949607 0.02447955 0.011682285)
(0.036282122 -0.059951138 0.019983072)
(0.023632953 -0.14963845 -0.0084811785)
(0.040493283 0.12748747 -0.029554304)
(0.059606676 -0.0017209034 0.030013316)
(0.081031083 -0.066362434 0.012657367)
(0.088288586 -0.039303 -0.013995323)
(0.088158291 0.038682982 -0.013969863)
(0.080864664 0.065458015 0.012518623)
(0.05955183 0.00033148859 0.029875426)
(0.040662679 -0.12621371 -0.030408572)
(0.05822536 0.085698445 -0.021079365)
(0.082847424 -0.05849043 0.06026236)
(0.10825043 -0.093422207 0.019891781)
(0.11999964 -0.0461839 -0.024487852)
(0.11983311 0.04534868 -0.024422951)
(0.10800487 0.09231124 0.019862944)
(0.082653533 0.056584207 0.06006428)
(0.058272483 -0.085028057 -0.022215112)
(0.076582137 0.024630587 -0.019621053)
(0.1060409 -0.11428628 0.072181543)
(0.13489041 -0.11121368 0.01253033)
(0.15017245 -0.049073701 -0.044359323)
(0.14997819 0.048070683 -0.044249997)
(0.13456176 0.11001545 0.012653312)
(0.10574878 0.11235238 0.072016758)
(0.076534973 -0.024145554 -0.021071821)
(0.095312886 -0.031795018 -0.0075781077)
(0.12923209 -0.1540108 0.084745367)
(0.16091521 -0.11540561 0.010934011)
(0.17869812 -0.046343616 -0.051482759)
(0.17848354 0.045209584 -0.051347104)
(0.16051117 0.11415543 0.011156863)
(0.12881089 0.15222412 0.084676139)
(0.09517485 0.032048743 -0.0092682709)
(0.11421887 -0.072202393 0.014706266)
(0.15245037 -0.16369596 0.092227622)
(0.18641184 -0.10432514 -0.0055342418)
(0.20572892 -0.0392836 -0.074053648)
(0.2055017 0.038050734 -0.073889383)
(0.18594934 0.1029941 -0.0052053917)
(0.15194565 0.16193325 0.092254478)
(0.11399126 0.072105983 0.012981773)
(0.13347126 -0.10333498 0.031026335)