/*--------------------------------*- C++ -*----------------------------------*\
  =========                 |
  \\      /  F ield         | OpenFOAM: The Open Source CFD Toolbox
   \\    /   O peration     | Website:  https://openfoam.org
    \\  /    A nd           | Version:  13
     \\/     M anipulation  |
\*---------------------------------------------------------------------------*/
FoamFile
{
    format      ascii;
    class       surfaceScalarField;
    location    "0.09";
    object      alphaPhi.water;
}
// * * * * * * * * * * * * * * * * * * * * * * * * * * * * * * * * * * * * * //

dimensions      [0 3 -1 0 0 0 0];

internalField   nonuniform List<scalar> 
150720
(
0
0
0
0
0
0
0
0
0
0
0
0
0
0
0
0
0
0
0
0
0
0
0
0
0
0
0
0
0
0
0
0
0
0
0
0
0
0
0
0
0
0
0
0
0
0
0
0
0
0
0
0
0
0
0
0
0
0
0
0
0
0
0
0
0
0
0
0
0
0
0
0
0
0
0
0
0
0
0
0
0
0
0
0
0
0
0
0
0
0
0
0
0
0
0
0
0
0
0
0
0
0
0
0
0
0
0
0
0
0
0
0
0
0
0
0
0
0
0
0
0
0
0
0
0
0
0
0
0
0
0
0
0
0
0
0
0
0
0
0
0
0
0
0
0
0
0
0
0
0
0
0
0
0
0
0
0
0
0
0
0
0
0
0
0
0
0
0
0
0
0
0
0
0
0
0
0
0
0
0
0
0
0
0
0
0
0
0
0
0
0
0
0
0
0
0
0
0
0
0
0
0
0
0
0
0
0
0
0
0
0
0
0
0
0
0
0
0
0
0
0
0
0
0
0
0
0
0
0
0
0
0
0
0
0
0
0
0
0
0
0
0
0
0
0
0
0
0
0
0
0
0
0
0
0
0
0
0
0
0
0
0
0
0
0
0
0
0
0
0
0
0
0
0
0
0
0
0
0
0
0
0
0
0
0
0
0
0
0
0
0
0
0
0
0
0
0
0
0
0
0
0
0
0
0
0
0
0
0
0
0
0
0
0
0
0
0
0
0
0
0
0
0
0
0
0
0
0
0
0
0
0
0
0
0
0
0
0
0
0
0
0
0
0
0
0
0
0
0
0
0
0
0
0
0
0
0
0
0
0
0
0
0
0
0
0
0
0
0
0
0
0
0
0
0
0
0
0
0
0
0
0
0
0
0
0
0
0
0
0
0
0
0
0
0
0
0
0
0
0
0
0
0
0
0
0
0
0
0
0
0
0
0
0
0
0
0
0
0
0
0
0
0
0
0
0
0
0
0
0
0
0
0
0
0
0
0
0
0
0
0
0
0
0
0
0
0
0
0
0
0
0
0
0
0
0
0
0
0
0
0
0
0
0
0
0
0
0
0
0
0
0
0
0
0
0
0
0
0
0
0
0
0
0
0
0
0
0
0
0
0
0
0
0
0
0
0
0
0
0
0
0
0
0
0
0
0
0
0
0
0
0
0
0
0
0
0
0
0
0
0
0
0
0
0
0
0
0
0
0
0
0
0
0
0
0
0
0
0
0
0
0
0
0
0
0
0
0
0
0
0
0
0
0
0
0
0
0
0
0
0
0
0
0
0
0
0
0
0
0
0
0
0
0
0
0
0
0
0
0
0
0
0
0
0
0
0
0
0
0
0
0
0
0
0
0
0
0
0
0
0
0
0
0
0
0
0
0
0
0
0
0
0
0
0
0
0
0
0
0
0
0
0
0
0
0
0
0
0
0
0
0
0
0
0
0
0
0
0
0
0
0
0
0
0
0
0
0
0
0
0
0
0
0
0
0
0
0
0
0
0
0
0
0
0
0
0
0
0
0
0
0
0
0
0
0
0
0
0
0
0
0
0
0
0
0
0
0
0
0
0
0
0
0
0
0
0
0
0
0
0
0
0
0
0
0
0
0
0
0
0
0
0
0
0
0
0
0
0
0
0
0
0
0
0
0
0
0
0
0
0
0
0
0
0
0
0
0
0
0
0
0
0
0
0
0
0
0
0
0
0
0
0
0
0
0
0
0
0
0
0
0
0
0
0
0
0
0
0
0
0
0
0
0
0
0
0
0
0
0
0
0
0
0
0
0
0
0
0
0
0
0
0
0
0
0
0
0
0
0
0
0
0
0
0
0
0
0
0
0
0
0
0
0
0
0
0
0
0
0
0
0
0
0
0
0
0
0
0
0
0
0
0
0
0
0
0
0
0
0
0
0
0
0
0
0
0
0
0
0
0
0
0
0
0
0
0
0
0
0
0
0
0
0
0
0
0
0
0
0
0
0
0
0
0
0
0
0
0
0
0
0
0
0
0
0
0
0
0
0
0
0
0
0
0
0
0
0
0
0
0
0
0
0
0
0
0
0
0
0
0
0
0
0
0
0
0
0
0
0
0
0
0
0
0
0
0
0
0
0
0
0
0
0
0
0
0
0
0
0
0
0
0
0
0
0
0
0
0
0
0
0
0
0
0
0
0
0
0
0
0
0
0
0
0
0
0
0
0
0
0
0
0
0
0
0
0
0
0
0
0
0
0
0
0
0
0
0
0
0
0
0
0
0
0
0
0
0
0
0
0
0
0
0
0
0
0
0
0
0
0
0
0
0
0
0
0
0
0
0
0
0
0
0
0
0
0
0
0
0
0
0
0
0
0
0
0
0
0
0
0
0
0
0
0
0
0
0
0
0
0
0
0
0
0
0
0
0
0
0
0
0
0
0
0
0
0
0
0
0
0
0
0
0
0
0
0
0
0
0
0
0
0
0
0
0
0
0
0
0
0
0
0
0
0
0
0
0
0
0
0
0
0
0
0
0
0
0
0
0
0
0
0
0
0
0
0
0
0
0
0
0
0
0
0
0
0
0
0
0
0
0
0
0
0
0
0
0
0
0
0
0
0
0
0
0
0
0
0
0
0
0
0
0
0
0
0
0
0
0
0
0
0
0
0
0
0
0
0
0
0
0
0
0
0
0
0
0
0
0
0
0
0
0
0
0
0
0
0
0
0
0
0
0
0
0
0
0
0
0
0
0
0
0
0
0
0
0
0
0
0
0
0
0
0
0
0
0
0
0
0
0
0
0
0
0
0
0
0
0
0
0
0
0
0
0
0
0
0
0
0
0
0
0
0
0
0
0
0
0
0
0
0
0
0
0
0
0
0
0
0
0
0
0
0
0
0
0
0
0
0
0
0
0
0
0
0
0
0
0
0
0
0
0
0
0
0
0
0
0
0
0
0
0
0
0
0
0
0
0
0
0
0
0
0
0
0
0
0
0
0
0
0
0
0
0
0
0
0
0
0
0
0
0
0
0
0
0
0
0
0
0
0
0
0
0
0
0
0
0
0
0
0
0
0
0
0
0
0
0
0
0
0
0
0
0
0
0
0
0
0
0
0
0
0
0
0
0
0
0
0
0
0
0
0
0
0
0
0
0
0
0
0
0
0
0
0
0
0
0
0
0
0
0
0
0
0
0
0
0
0
0
0
0
0
0
0
0
0
0
0
0
0
0
0
0
0
0
0
0
0
0
0
0
0
0
0
0
0
0
0
0
0
0
0
0
0
0
0
0
0
0
0
0
0
0
0
0
0
0
0
0
0
0
0
0
0
0
0
0
0
0
0
0
0
0
0
0
0
0
0
0
0
0
0
0
0
0
0
0
0
0
0
0
0
0
0
0
0
0
0
0
0
0
0
0
0
0
0
0
0
0
0
0
0
0
0
0
0
0
0
0
0
0
0
0
0
0
0
0
0
0
0
0
0
0
0
0
0
0
0
0
0
0
0
0
0
0
0
0
0
0
0
0
0
0
0
0
0
0
0
0
0
0
0
0
0
0
0
0
0
0
0
0
0
0
0
0
0
0
0
0
0
0
0
0
0
0
0
0
0
0
0
0
0
0
0
0
0
0
0
0
0
0
0
0
0
0
0
0
1.5893155e-39
3.0090432e-39
1.3021163e-37
7.7883799e-43
1.0041624e-44
3.0478894e-44
1.589275e-39
3.9232998e-50
2.046007e-49
1.0041381e-44
2.2640499e-56
6.51525e-55
3.9232324e-50
-5.3944007e-51
8.9562357e-56
5.3943338e-51
-1.7734636e-48
1.9728134e-49
1.5707879e-48
-2.3866762e-43
1.0626316e-44
2.2803953e-43
6.7470518e-40
2.8971086e-38
-3.0791404e-39
1.3195125e-41
3.8607897e-41
2.4621394e-39
1.8637168e-46
2.5139968e-46
9.66983e-46
1.3224385e-41
3.2093437e-51
1.8949645e-50
2.5158212e-46
4.9674217e-57
2.0199961e-55
3.2097882e-51
-9.2961766e-50
5.8449309e-54
9.2956015e-50
-2.3307429e-47
7.1037407e-49
2.2701373e-47
-1.1213566e-42
2.2288817e-44
1.1096708e-42
1.7171233e-39
5.4209953e-38
4.1070684e-42
8.714245e-46
3.8266997e-45
3.860319e-41
8.2035445e-48
5.7630903e-50
2.9237689e-49
1.8380575e-45
1.7375268e-54
6.4313714e-54
7.6571586e-50
4.6426817e-60
1.3723209e-58
1.9393525e-54
-4.9277276e-50
1.3387732e-53
4.9301526e-50
-1.0460328e-47
2.2555789e-49
1.0895994e-47
-3.3371272e-43
1.257568e-44
3.2222911e-43
6.0537818e-42
3.6832686e-39
5.6833338e-43
5.8439581e-50
6.6622169e-49
3.8259736e-45
1.4658352e-51
2.3843406e-48
1.4512321e-47
6.526094e-46
1.0094944e-48
1.1243275e-47
4.2117203e-46
1.3253091e-52
3.2053517e-50
4.0911654e-48
-1.2631378e-51
1.3377706e-54
1.4102714e-51
-6.3394681e-49
2.2933437e-50
8.3365472e-49
-1.5943824e-44
6.6454747e-47
2.516676e-44
8.8200845e-46
7.1592748e-42
4.2705879e-46
1.3136601e-53
7.0317181e-54
6.6620119e-49
3.9611884e-55
6.0854067e-49
9.3808201e-49
1.2163123e-46
5.1961787e-50
1.2759281e-49
4.7089677e-47
8.2400647e-55
3.3156746e-51
3.1936458e-49
-3.6803164e-54
4.4427949e-55
5.3883e-54
-1.5736785e-49
6.6955899e-51
2.1836524e-49
-3.896236e-49
1.8869147e-50
7.2259089e-47
3.0500737e-49
8.8118857e-46
1.2524751e-49
1.1888703e-54
7.6288633e-56
5.7664632e-54
1.5161547e-58
2.6383572e-50
6.655268e-51
4.6281901e-48
8.2565036e-53
0
3.4767998e-49
1.3149573e-56
4.0457668e-55
3.5348263e-51
-1.5144783e-53
5.8440989e-55
1.996963e-53
-2.0542702e-53
8.1795129e-54
8.4957586e-51
-1.6615046e-52
1.235812e-53
1.9002397e-50
1.4665934e-52
3.045942e-49
1.0036052e-52
3.3360237e-57
2.1953376e-59
7.2945799e-56
8.0069143e-62
1.2308032e-52
1.0624186e-53
1.8581167e-50
2.9005029e-56
4.494918e-56
1.2847836e-52
5.3034665e-58
2.913031e-57
6.708333e-54
-2.1266414e-56
8.5065857e-58
7.9806616e-55
-2.9353608e-56
5.1658283e-57
9.955987e-54
-9.1250277e-56
1.656401e-56
1.2403456e-53
9.5905293e-56
1.4641741e-52
5.4866841e-56
1.3956864e-59
2.1253065e-60
3.6218243e-64
2.157861e-61
5.7353691e-56
1.0322458e-53
3.3644054e-55
2.206635e-59
9.9413627e-56
2.8676838e-57
2.549726e-61
2.8631795e-57
7.166411e-59
-8.9774761e-60
1.5500499e-57
4.5358548e-59
-2.5697252e-59
5.0372365e-57
1.4511382e-58
-1.2260922e-58
1.6322925e-56
3.3683833e-58
9.2722595e-56
3.0634778e-59
3.0295754e-57
7.1324347e-30
1.3459226e-29
7.5055866e-28
2.8437071e-32
6.1312767e-30
1.7490167e-29
1.638022e-27
5.0268174e-27
1.2305108e-26
1.2676674e-24
1.3763663e-26
2.1862701e-25
3.156271e-23
-6.6875878e-52
7.5055466e-27
9.8802807e-25
-1.6481298e-48
5.6617062e-51
2.9704104e-49
-1.7909987e-43
5.7446487e-48
4.0713055e-43
3.5919067e-43
5.2151804e-38
-2.3181256e-38
6.8418692e-32
1.7947923e-31
7.4281354e-30
1.1228789e-33
1.1636761e-31
8.6655406e-33
2.6439338e-29
7.988456e-29
9.0427347e-31
1.8773167e-26
1.5063418e-28
1.4428869e-29
3.4734508e-25
-3.9613275e-52
4.7610291e-31
1.1671612e-26
-1.9414171e-47
3.6083631e-51
4.2127122e-47
-5.0899935e-43
8.7379469e-47
1.6185691e-42
1.6042127e-42
5.4208196e-38
4.521643e-45
3.0349127e-31
1.3148286e-30
7.9922039e-29
9.1105284e-33
3.6935382e-33
1.1829791e-33
1.0123835e-30
5.4277202e-33
1.540317e-34
9.0381854e-31
5.9625924e-33
4.1522214e-33
1.4450566e-29
-4.2476915e-52
7.1628221e-35
4.81994e-31
-7.455255e-48
4.6255376e-51
1.835935e-47
-5.4209141e-44
4.4263438e-47
3.7647393e-43
1.8018516e-39
1.8438946e-39
3.9072568e-41
1.7551307e-32
3.9472763e-33
4.9051786e-30
6.2033984e-34
4.1813834e-36
6.825678e-35
5.333479e-32
7.4841139e-37
1.2977901e-41
1.5768484e-34
8.5717292e-37
9.8320758e-37
4.1512065e-33
-2.594337e-43
1.6866044e-38
7.2468501e-35
-3.2892829e-42
1.3049734e-45
3.031539e-42
-8.82378e-38
9.3149301e-40
8.7340397e-38
1.4526378e-36
5.3958996e-35
2.3434583e-38
3.0390677e-35
1.196581e-36
8.9283546e-33
4.3760279e-39
2.5944277e-38
5.4116804e-38
2.3739667e-34
2.7707937e-40
1.3635169e-40
5.7632972e-38
3.3605181e-40
3.3097193e-40
9.8283867e-37
-5.4657725e-45
1.1072266e-41
1.7247145e-38
-1.9720574e-42
1.375266e-43
1.8177449e-42
-2.2173131e-38
2.1495399e-39
6.0579389e-38
1.4248353e-38
5.5759433e-36
4.8817519e-40
1.0210551e-39
7.886765e-40
1.1945618e-36
2.0954397e-40
9.8537767e-42
2.7330328e-41
5.5100675e-38
2.5375138e-42
2.7255444e-42
1.252497e-39
2.9549577e-44
1.0051659e-43
3.3338395e-40
-1.2764517e-44
4.9878349e-45
1.1109973e-41
-3.9451393e-42
1.7936748e-43
6.5666788e-42
-1.1480033e-40
2.1069253e-41
6.0685716e-39
0
3.9596918e-38
1.3343232e-43
9.3915915e-44
2.1124961e-43
7.8843264e-40
8.2791054e-44
9.4266296e-45
1.7666759e-44
2.7397246e-41
2.8479921e-45
8.1436352e-46
2.1534175e-42
5.5800541e-48
4.496294e-47
1.0331472e-43
-3.9510975e-47
8.1084948e-49
5.0322684e-45
-1.9150291e-43
1.478549e-45
5.2579398e-43
-1.1784386e-43
1.8872018e-44
5.7158859e-41
1.0296885e-44
3.6224727e-41
1.9022457e-46
5.6097119e-47
2.0003915e-43
8.2108877e-47
1.1072531e-44
8.6364313e-48
1.7276441e-44
4.3777832e-46
2.636071e-49
8.0433188e-46
1.8404466e-47
1.4065624e-51
4.4331251e-47
8.9389015e-49
-1.9681073e-48
2.7573941e-48
3.1033251e-50
-6.5015664e-47
1.729913e-45
3.9647151e-47
-5.7921432e-47
1.8549193e-44
4.6399193e-46
9.9983698e-45
8.3610902e-50
2.4064393e-46
4.438165e-30
8.6723072e-30
6.769527e-28
1.1236593e-31
2.5582806e-27
3.2421965e-27
1.888534e-25
2.6233501e-25
5.0637527e-25
6.0586177e-23
6.494266e-24
5.9648275e-23
4.7012708e-21
-6.4494767e-23
1.0226901e-24
8.0703248e-23
0
7.0328692e-22
4.5552409e-20
-7.2632403e-22
1.003912e-26
7.2631399e-22
1.3269695e-21
1.7984775e-19
-8.447547e-38
2.6799324e-34
8.0333261e-34
1.6091356e-29
1.8323458e-35
2.5129234e-28
1.3900135e-29
2.006233e-26
3.4089429e-27
3.0034139e-29
7.9992677e-25
5.1448776e-26
2.5358064e-27
7.3836722e-23
-5.0643165e-26
9.6213808e-29
1.4251509e-24
-4.5412799e-23
0
1.0501669e-21
-1.5373351e-23
2.1243639e-22
2.0169419e-20
5.6005542e-26
1.4515212e-21
4.6574324e-26
1.2232309e-31
1.1342018e-28
8.3544906e-27
5.4527558e-30
5.558253e-32
0
2.7976533e-29
9.4935968e-32
4.1363377e-33
3.0895823e-29
1.7088433e-30
3.1628419e-31
2.5483778e-27
-8.4188391e-31
1.0624273e-32
9.9317029e-29
-3.317379e-25
0
1.3872005e-25
-4.4738604e-28
4.7158082e-27
7.530264e-23
4.3160636e-30
5.5553836e-26
3.6144323e-33
1.0004905e-33
3.5958447e-31
2.8274669e-28
1.0461111e-31
1.5390492e-35
5.529893e-36
1.6929402e-31
1.8958496e-35
9.1168457e-37
4.2897743e-33
2.071803e-34
1.1674334e-34
3.2037627e-31
-1.8895295e-33
2.1573166e-36
1.2738139e-32
-2.0533966e-29
0
1.5323282e-29
-2.1737899e-32
1.0103399e-30
4.6942856e-27
5.3943149e-34
4.2938774e-30
1.4831292e-35
1.1535443e-35
3.3342852e-35
2.0248039e-30
9.2373222e-34
1.8719099e-38
2.4550245e-37
6.2765266e-34
4.3230691e-39
4.0870131e-41
9.8625248e-37
3.9204876e-38
3.2521322e-38
1.1766195e-34
-3.686529e-37
7.1871807e-40
2.5742286e-36
-4.0830815e-33
0
3.5716206e-33
-2.6719933e-36
5.1778487e-34
1.0057418e-30
3.7331083e-38
5.4615698e-34
1.5273187e-38
4.2632012e-36
9.1509695e-37
3.3639455e-33
8.0653837e-37
1.7174878e-40
6.4772194e-39
1.5559988e-35
1.0054283e-41
4.1867756e-41
3.161842e-39
2.0306839e-41
9.7556571e-42
3.2835843e-38
-2.7678127e-41
5.4757176e-43
7.52146e-40
-1.8757127e-36
0
1.8805499e-36
-1.4796199e-38
3.1868399e-37
5.1561268e-34
4.9851639e-38
3.6767463e-36
2.7466049e-40
9.0074633e-41
1.8895533e-40
9.1558945e-37
4.3473718e-40
1.1525657e-40
1.6467547e-41
5.5979189e-38
4.1309223e-44
2.8571674e-42
3.9921007e-40
6.2031553e-46
6.3842381e-46
9.9233555e-42
-2.4226711e-44
2.5451991e-46
5.5263113e-43
-8.2146562e-40
2.006827e-43
8.2379767e-40
-5.3870869e-40
9.7071978e-41
3.1768991e-37
1.7522815e-40
1.8773142e-37
1.8375393e-42
4.8848612e-44
1.8495288e-40
1.0322148e-43
4.1840101e-42
3.0664952e-44
1.6123637e-41
3.8980938e-43
3.6710999e-44
1.5925722e-41
3.8834755e-43
1.2028778e-48
8.0645684e-44
1.945179e-45
-1.4230497e-47
2.4778692e-46
2.446807e-48
-1.6800224e-43
3.6605722e-43
4.1682953e-45
-6.055309e-43
9.560258e-41
1.9513447e-42
2.4456267e-40
6.3562052e-45
6.0178355e-42
2.5805045e-30
5.7471277e-30
3.236087e-27
2.1391237e-31
4.5486277e-28
1.1016963e-29
1.9099622e-25
1.6360152e-24
4.8632985e-24
6.3408968e-22
2.8288522e-23
1.5465598e-22
1.3467305e-20
-5.1362681e-24
1.1859371e-27
1.1414172e-22
-1.5566403e-19
1.5507327e-22
1.0577513e-20
-5.9359644e-20
2.9506433e-19
4.6097746e-17
2.1981473e-21
3.9152233e-19
-2.891299e-23
3.5079121e-25
2.8923306e-24
3.4456637e-22
2.0526777e-23
6.3262148e-30
1.7903171e-29
3.7101247e-25
4.178642e-26
2.6049582e-28
8.1938044e-24
4.6776426e-25
1.0439528e-26
3.1864041e-22
-5.9628561e-25
3.5436307e-28
2.496832e-24
-8.8976235e-22
5.53e-24
3.1341293e-21
-1.0934143e-22
0
5.1200816e-19
0
1.4690987e-21
5.5436318e-25
4.1419174e-29
1.850802e-26
1.4369182e-23
6.7255918e-25
4.958268e-31
2.4406146e-30
1.9076997e-28
9.2530776e-31
3.0107635e-32
2.9094074e-28
2.0204318e-29
1.0868849e-30
1.2967771e-26
-3.7761223e-26
5.892e-28
4.418197e-26
-7.5478186e-26
4.8589412e-27
4.9786208e-23
-1.0199821e-26
0
1.3966534e-23
8.1299548e-28
3.4853464e-24
1.1414933e-29
5.0141864e-31
0
2.6733257e-26
3.2724307e-29
1.94847e-34
1.1543501e-31
7.2472871e-30
8.0070592e-35
3.0643644e-37
3.4524041e-32
2.871933e-33
1.2154298e-34
1.4043771e-30
-2.4869892e-30
7.8107671e-32
4.6672507e-28
-5.0350714e-30
8.4592589e-31
4.9143029e-27
-2.0708364e-28
0
2.1104237e-27
4.1300764e-29
1.2981175e-25
5.3364965e-31
5.5689686e-34
0
7.5329428e-30
9.3948861e-33
2.3369563e-35
1.9982549e-34
2.4363269e-31
1.0350362e-37
2.1527586e-37
3.1314074e-35
4.4613174e-37
6.226586e-38
2.3899582e-34
-2.0232924e-34
1.854754e-35
7.7892158e-32
-1.1504495e-33
1.819566e-34
8.503594e-31
-5.5547562e-31
5.6088668e-35
2.507084e-30
2.5257638e-32
3.2945735e-28
2.2753536e-34
3.5541016e-35
2.5938367e-36
2.6706135e-32
1.7338633e-35
1.5812131e-38
0
3.1241281e-34
2.7033591e-40
8.2554416e-41
3.04804e-37
5.3339498e-41
1.8374312e-41
9.5286608e-38
-1.5276031e-38
5.9795149e-39
1.8557623e-35
-2.8832024e-35
6.333331e-38
2.1330946e-34
-4.1102186e-35
2.709599e-36
2.0595194e-32
7.5896785e-36
2.5216259e-32
6.5479998e-38
5.7311634e-40
1.0701124e-39
3.5239133e-36
4.4111253e-39
1.4368338e-40
3.623177e-41
1.5422675e-37
1.1680056e-43
7.6303199e-43
1.2442322e-39
3.1584299e-44
1.3672205e-45
2.8387873e-41
-1.0171255e-41
2.4585528e-42
5.9777604e-39
-6.7067784e-39
2.673043e-41
7.1062637e-38
-1.3348031e-38
1.0498018e-39
3.0572681e-36
1.3363576e-39
7.763821e-36
1.0282083e-40
2.9000609e-43
1.271043e-39
1.7903224e-42
2.7813344e-41
5.8352348e-44
5.2260674e-41
1.0737523e-42
6.3520707e-44
3.3940121e-41
7.106741e-43
2.1448285e-46
1.8246426e-43
6.3100913e-45
-4.3272575e-45
2.4239259e-42
3.5452932e-44
-3.2597872e-42
2.9974311e-41
4.6638023e-43
-2.1667809e-42
1.1184967e-39
2.8039567e-41
1.5556547e-39
1.7870559e-44
2.7419503e-41
4.9810249e-20
5.792498e-20
2.9954691e-17
2.2227366e-20
0
4.7140732e-25
4.9809971e-20
2.1352817e-23
2.8494513e-23
2.8404195e-21
6.8349323e-23
5.4659401e-23
5.2999902e-21
6.3912052e-22
6.6608309e-21
1.5267693e-18
-1.0733105e-19
7.2546769e-25
1.1856043e-19
-7.57256e-23
1.2604065e-18
8.9940228e-17
6.3332164e-23
4.9388663e-19
0
2.2227005e-22
0
1.3077889e-19
0
1.553432e-25
8.9934718e-24
1.0637378e-21
1.4964341e-25
0
4.9099134e-23
2.0687821e-24
8.6106105e-26
4.6570597e-22
4.6845163e-24
3.8377738e-25
1.6416817e-20
-3.5202911e-22
3.8128936e-25
3.4972687e-21
1.2358305e-21
2.9820392e-23
1.5155495e-18
7.6107741e-22
1.0060892e-19
1.93449e-23
7.7547159e-26
0
6.3241001e-23
9.821539e-24
6.2922062e-26
1.3656209e-26
3.7780495e-23
3.0295211e-28
0
1.1370861e-25
6.5997093e-28
1.7248529e-29
3.7100844e-25
8.7446164e-29
2.2588209e-30
4.2849117e-25
-3.1813673e-26
7.1787507e-25
5.5327487e-23
-7.9437556e-25
0
4.4507758e-23
0
1.7607931e-21
2.2764678e-27
1.5333701e-28
0
5.2918077e-26
1.3001646e-28
1.4606054e-29
1.6549179e-30
2.1113763e-26
3.1983012e-32
1.4778351e-33
1.5515255e-29
3.3701601e-32
2.592449e-33
1.8651011e-29
3.3665485e-32
3.7394497e-30
3.8281243e-28
-5.4485937e-30
7.2026116e-29
5.4584633e-25
-8.756545e-28
5.0009146e-30
3.4497679e-27
0
9.2606861e-25
6.3134471e-31
2.9992452e-33
0
1.8360832e-29
5.0252389e-32
6.3382383e-34
1.7847261e-37
1.9019171e-30
5.2715406e-36
3.8413515e-39
2.1384599e-33
5.5652423e-36
8.8879047e-37
2.8306948e-33
-3.8909827e-33
5.0893378e-34
2.6388846e-30
-2.0957288e-32
1.4288563e-32
7.264919e-29
-9.5692659e-31
1.1972761e-32
3.6426744e-29
3.2468889e-32
7.9935625e-28
5.5163743e-33
7.4424087e-37
5.7214224e-36
5.3500463e-32
1.8004695e-34
1.3814531e-38
3.2556302e-37
3.5698001e-34
2.3998362e-39
4.1559947e-39
8.6296188e-37
7.5331991e-40
1.4345751e-40
9.8595747e-37
-8.408368e-37
1.3817958e-37
5.2814029e-34
-3.478145e-35
3.8653046e-36
1.4531074e-32
-6.5436485e-35
1.873595e-36
3.7603563e-32
2.2702054e-36
5.7623621e-32
1.6881183e-36
6.0462538e-39
3.69353e-39
9.2125937e-36
2.5182714e-38
1.8871605e-38
3.604251e-38
8.3105778e-36
4.4335948e-42
3.781296e-40
8.8927065e-38
2.0764571e-43
1.4317903e-45
1.7713904e-40
-3.7496933e-40
4.824423e-41
1.4446677e-37
-3.8617016e-39
1.3528454e-39
3.9381672e-36
-1.1099072e-38
7.4590148e-43
4.9391685e-36
2.8412261e-41
1.0021502e-35
7.5584441e-40
7.6282477e-42
4.9724496e-39
1.2612293e-41
1.1913096e-40
1.0856201e-40
4.1114643e-38
6.8184591e-40
2.5404448e-44
6.9927298e-40
1.0495054e-41
2.6089001e-46
1.842987e-43
4.653858e-45
-1.8076498e-43
5.0181879e-41
6.5324022e-43
-1.2743093e-42
1.3653301e-39
1.8432909e-41
-6.4452316e-42
1.5843081e-39
3.3209386e-41
9.7988635e-39
9.5127923e-43
1.4806574e-40
2.0061857e-19
-1.3089603e-19
1.1212139e-16
1.6289673e-17
0
1.5984498e-19
4.1200811e-17
2.6603596e-23
4.1760888e-23
3.8453391e-21
9.2562165e-24
3.2118886e-24
6.4599439e-21
-7.4631139e-18
5.4781033e-20
4.9559157e-18
-1.505096e-17
1.0813598e-17
1.2481159e-15
-2.2422471e-18
-6.9295074e-19
7.4375946e-17
-3.1746285e-19
6.4102103e-17
0
2.3742142e-23
5.901328e-30
2.5217727e-22
-2.7827177e-22
1.4263716e-21
0
2.0546294e-19
6.7296482e-24
6.5124103e-24
3.1640202e-21
1.8351669e-23
1.1194277e-23
1.5479121e-21
0
0
4.5879764e-20
6.4150757e-20
4.8340595e-22
2.6336926e-17
4.1623507e-22
0
9.3424903e-19
0
6.9015929e-19
0
5.9401512e-25
1.1286674e-23
2.9639898e-22
-1.3465298e-22
1.5818367e-25
0
7.8356539e-23
7.6281071e-26
9.9908364e-28
2.0536311e-23
9.0324762e-26
2.0352801e-27
2.8147493e-23
1.8522558e-27
1.9729293e-28
1.1731838e-23
4.2340856e-25
7.7488379e-28
5.3804839e-22
0
0
1.6207514e-22
0
6.3332018e-21
0
1.6736596e-25
2.5161001e-26
1.6225008e-23
-1.4901453e-27
2.1948364e-29
0
2.7653533e-25
3.6017734e-30
1.5433339e-31
1.0329575e-27
9.0753149e-30
1.7610119e-31
1.8098221e-27
4.8969829e-31
3.0048891e-33
5.8811627e-28
2.8381447e-28
3.1881238e-27
3.4653611e-25
2.1556477e-30
5.4981981e-31
3.6745224e-27
0
1.1270902e-24
5.1274151e-30
1.6198851e-28
5.0841649e-30
3.7141274e-26
-7.8733356e-29
1.1642548e-32
2.8334355e-32
2.4514151e-28
5.4201762e-34
3.5541724e-35
1.6758007e-31
8.5022286e-34
3.4460426e-35
1.7859912e-31
4.9779516e-33
2.0308103e-32
1.6430496e-30
3.302021e-31
2.8298339e-31
1.8202223e-27
2.0254075e-32
7.4269474e-31
7.7079826e-29
0
8.640518e-28
5.9609289e-32
1.385881e-33
1.6196902e-33
5.1398458e-30
-4.2629294e-33
2.1423115e-36
1.5050727e-37
3.0093199e-32
1.87032e-37
2.3020481e-39
3.8529322e-35
1.5423956e-37
1.4424559e-38
3.5498927e-35
2.3892567e-35
1.7916839e-36
1.6839161e-32
-1.0191051e-34
6.9484684e-35
2.9752845e-31
2.0807896e-34
2.1832141e-34
1.209252e-30
3.0227418e-36
1.0293933e-31
3.1705492e-35
1.6748068e-37
6.3470989e-37
1.6274503e-33
9.2025283e-37
2.9318427e-38
9.0456204e-38
2.1439914e-35
5.8018265e-41
2.8889607e-39
2.6776203e-37
2.5969894e-41
4.1691098e-42
1.4630672e-38
3.0599691e-39
5.4639247e-40
1.9322948e-36
-2.83754e-38
2.144756e-38
7.3419869e-35
2.0688128e-38
6.1289683e-38
2.232687e-34
5.6780043e-40
1.3121418e-35
4.2023953e-39
3.3576359e-40
6.2803502e-37
8.883259e-40
1.2476358e-38
6.068654e-40
2.5425648e-37
5.2199227e-39
8.6860378e-43
7.1901514e-39
1.2922195e-40
8.376141e-45
5.1618721e-42
6.3001375e-44
7.7622817e-43
5.8309259e-40
1.2525797e-41
-9.6804079e-42
2.2549276e-38
2.6498631e-40
8.2084546e-42
6.2137191e-38
7.4552581e-40
6.6572163e-38
4.2613037e-41
1.1229305e-39
0
0
3.8359392e-16
0
3.4355495e-19
1.1211594e-18
5.8565055e-17
0
1.0112997e-21
5.2103414e-20
3.1223564e-19
6.3749063e-20
4.3837753e-17
0
-7.1325577e-24
5.2293936e-18
-1.501181e-18
1.2463741e-16
1.8979641e-15
-2.5501715e-18
-3.029269e-19
1.6213581e-17
-3.3670735e-21
9.9780558e-17
7.3060339e-19
2.9393843e-20
7.4137747e-24
2.5868564e-19
0
2.6971724e-20
0
1.2623892e-18
4.8048831e-22
1.1083947e-22
4.3356287e-20
5.8664393e-22
0
8.6622692e-20
0
0
9.1385397e-21
1.7155963e-18
0
1.7368349e-16
0
0
4.4993618e-18
0
4.3921012e-18
0
9.0667698e-25
3.8869411e-25
2.5714881e-22
-6.0639143e-25
2.6683635e-24
0
1.2551354e-22
3.7817063e-24
2.9861679e-26
5.3437331e-22
2.2582833e-25
0
3.4636735e-23
0
-5.9610454e-28
2.5121281e-23
8.1549768e-23
1.6296936e-24
1.9737829e-20
8.5636103e-23
1.8131591e-24
3.8043835e-20
4.2927352e-26
3.6971941e-20
0
2.0119044e-25
3.568121e-25
5.6617309e-24
-4.6569501e-27
8.0475448e-28
4.3940474e-28
5.0492269e-25
2.4739088e-29
1.8866586e-32
3.1684867e-26
1.109293e-29
0
2.1885652e-27
9.2298532e-35
4.4700687e-33
2.9230144e-30
6.6068205e-27
4.9902258e-32
1.9686583e-24
2.9371601e-27
1.8383824e-28
1.8204356e-24
7.4237515e-30
1.1641661e-24
3.9494165e-29
6.6236253e-27
1.2307492e-27
2.5806566e-25
-2.0315331e-29
6.0701354e-30
1.8291085e-29
1.2037794e-26
1.8265337e-33
2.8219445e-32
8.716195e-30
1.2388725e-33
4.2673144e-36
2.2706748e-31
8.7822938e-33
1.5422807e-32
1.4561021e-30
2.1384292e-30
7.2167636e-30
8.4422432e-28
3.2750256e-31
1.3296835e-32
2.6297384e-28
9.1577292e-30
8.6710548e-28
7.9672098e-31
1.1942447e-28
9.0991098e-30
6.0772446e-27
-1.1428851e-29
1.3180211e-31
2.0302004e-31
2.9503196e-28
1.8615446e-36
2.62213e-33
1.6926196e-31
2.0540591e-37
6.0878761e-40
4.1398742e-35
8.4666101e-35
7.6846696e-37
1.7012646e-32
4.3713108e-33
0
2.3183842e-30
2.3886402e-33
1.7363746e-32
1.2388187e-30
8.9122414e-34
1.0285051e-29
2.3579526e-34
2.2340579e-32
1.3654598e-32
3.9766319e-29
-7.2989136e-31
2.0811873e-35
9.1740618e-35
2.9294098e-31
8.9323668e-38
4.6020925e-37
2.4349019e-33
2.872016e-40
2.623213e-41
1.0315812e-37
9.7763798e-39
0
2.4631041e-36
3.5854755e-36
0
2.2805513e-33
3.076348e-35
4.4421088e-36
1.6943659e-32
1.1342388e-37
9.3487252e-34
4.064409e-38
1.8076247e-36
1.3522935e-32
-4.6408962e-34
5.9423503e-34
1.2016803e-38
9.2218698e-35
1.7047733e-36
3.5363011e-41
4.7302156e-37
6.3792287e-39
1.6151418e-43
6.5832469e-41
7.2867724e-43
2.4255494e-42
5.5137447e-40
8.8513882e-42
2.3138601e-39
2.3892535e-36
2.5513872e-38
6.3967627e-39
4.4445802e-36
5.1542831e-38
1.8452964e-37
3.6765957e-42
2.3629484e-39
-9.3236738e-18
-1.2242488e-16
2.1169977e-15
6.2903339e-16
5.0518282e-19
0
1.7960691e-17
5.5627597e-19
1.0627003e-22
8.5282349e-22
1.6660384e-17
-2.2531732e-20
1.5014124e-16
-1.8273793e-16
-2.1136198e-20
1.0589571e-14
-1.6901528e-17
-1.6773929e-17
1.3635449e-15
-6.8249964e-19
-3.1166348e-19
1.900827e-19
-4.1257568e-19
3.6877606e-17
0
3.1095522e-20
-5.2370731e-21
2.8971336e-17
-1.51121e-16
7.0251971e-20
-9.50774e-23
2.4644482e-18
2.8553042e-21
1.1195927e-21
6.260208e-20
1.3004351e-20
0
1.4804929e-18
0
-9.0266727e-25
1.0076171e-21
9.9787202e-19
0
1.5924506e-16
2.2971522e-21
8.495652e-20
6.1608843e-17
0
7.6765084e-18
0
4.1885165e-23
-2.0251811e-26
4.99215e-19
-5.0423307e-19
5.0016566e-25
3.7143496e-29
7.1776491e-23
2.0059075e-23
6.4924813e-26
1.2550636e-21
1.4694604e-25
0
2.4251809e-23
0
-2.097693e-32
2.4356362e-23
7.7782682e-23
0
1.872039e-20
0
0
3.8730641e-20
4.9493391e-24
2.2784411e-19
0
1.3988632e-27
4.3033022e-26
4.9266436e-22
-4.8703247e-22
1.8693841e-27
1.9984009e-27
4.5604095e-25
2.1707811e-27
3.911146e-29
2.9701502e-25
4.3104614e-29
0
9.1111023e-27
0
-1.6797093e-32
4.6185594e-29
1.7378014e-26
0
4.2710195e-24
1.0169813e-26
0
4.0322073e-24
1.1691903e-30
6.1243059e-24
1.6646876e-28
1.1239867e-28
6.6286952e-29
7.2835196e-25
-4.2736767e-25
3.604803e-31
2.6554364e-30
1.4146131e-26
2.2725974e-31
1.2449409e-30
4.6722958e-29
3.2483798e-31
4.9783899e-33
5.7864585e-29
1.0231528e-32
4.339137e-34
2.2775016e-30
1.7425683e-29
0
6.3119773e-27
9.2506837e-30
0
8.2160671e-27
1.2542795e-29
2.3409047e-27
4.1278697e-30
2.0075528e-30
2.0597855e-30
6.3263789e-27
-1.6205002e-28
3.2291183e-32
4.1338663e-32
2.9962804e-28
3.7159955e-35
3.2202747e-34
1.4493093e-30
1.9773722e-35
9.6181911e-37
5.0414529e-33
1.4528485e-34
6.4454583e-38
1.7386813e-32
2.4687347e-33
1.3961049e-34
5.2907719e-31
1.8233807e-33
2.1681356e-34
7.3743642e-31
1.1781364e-32
6.7505195e-29
2.7780905e-33
8.4820808e-29
2.3174596e-28
4.9013891e-27
-9.5232057e-30
3.242629e-32
4.7788575e-30
1.9797897e-28
3.2147727e-36
1.0636291e-33
6.9960129e-32
1.4774269e-38
1.572355e-38
4.2294036e-36
3.1361623e-38
0
4.4977686e-36
4.5028071e-35
7.2981679e-36
2.1196447e-32
4.2861144e-35
8.6420664e-36
1.5101852e-32
5.5607146e-36
5.4132236e-32
1.2331678e-36
3.0448035e-30
2.2426742e-28
-7.2724365e-31
7.2540363e-30
6.4322095e-33
1.5375313e-29
3.638726e-31
1.177367e-36
1.9343973e-32
5.0446675e-34
1.2266917e-41
1.1774471e-36
1.7041936e-38
8.5173675e-41
5.2846585e-39
6.2184432e-41
4.4744243e-37
2.1423458e-34
3.0357949e-36
6.1830931e-38
8.4998573e-35
1.1852563e-36
5.7530086e-36
1.4825104e-40
6.123525e-38
0
6.1741332e-17
2.2766843e-15
4.1260487e-16
4.4094934e-19
0
2.1578061e-17
4.4136562e-19
-2.2864741e-24
4.3343645e-22
1.7056097e-18
4.1070009e-18
1.6195581e-16
-8.4729576e-16
2.0855989e-15
1.3829996e-14
-9.0781669e-19
-9.0118975e-17
1.0346683e-15
-3.9983493e-21
-2.0805505e-18
1.2487604e-18
-3.4635293e-20
3.6788479e-17
-1.1627971e-22
1.067343e-17
0
1.6797275e-15
-7.3920153e-16
2.8318145e-21
0
1.5973378e-17
6.3478869e-20
3.8858686e-24
1.3885527e-21
4.1653904e-19
9.9689357e-22
1.4701624e-17
2.7224542e-17
8.0951803e-19
2.2331896e-15
-7.0595444e-19
-2.7407653e-20
2.1378427e-16
-5.0573205e-19
-4.2165144e-20
7.7136604e-17
-3.4758533e-20
7.7246508e-18
-1.1295009e-19
2.9139359e-20
2.7163103e-18
1.6355182e-16
0
6.9324593e-24
8.7983994e-24
2.9200047e-20
1.4795905e-23
8.5345078e-24
8.5021508e-22
8.6548026e-24
3.6046178e-26
1.0272535e-21
8.7901794e-21
2.9277532e-22
8.00468e-19
2.9326056e-25
-3.9521456e-25
1.0486482e-22
-3.5634519e-21
-4.7908477e-25
1.3109528e-22
-6.1377701e-24
3.5746223e-19
-4.9597294e-22
7.6071712e-21
3.3361222e-18
2.178821e-17
0
0
3.8615227e-21
3.7548624e-21
4.1115158e-26
1.1869247e-25
7.7622728e-24
6.2593745e-28
5.0045161e-29
8.3581942e-26
1.5516029e-24
1.1332284e-25
2.9109419e-22
2.217875e-26
1.6987825e-26
8.8896633e-24
-1.4640213e-28
6.2614423e-27
4.8987465e-24
9.0971663e-29
2.6026195e-26
-2.3194072e-26
2.3664266e-19
1.8268745e-21
3.4016945e-18
0
4.9380663e-23
8.273043e-21
2.3766827e-19
2.5571108e-27
1.6449775e-24
3.5214301e-23
2.0163709e-29
6.816503e-29
2.6355593e-27
5.5447139e-28
4.0728231e-29
1.1275657e-25
2.1106963e-28
1.5208158e-31
5.6649448e-26
-4.2509521e-29
0
2.5901313e-26
1.7896795e-28
3.239483e-26
-6.6896416e-29
1.1588135e-22
2.2521352e-24
1.7873803e-21
-7.8434556e-23
1.3170529e-22
4.8769003e-24
8.494476e-21
6.5532365e-27
2.2784534e-24
1.0909745e-22
5.5860517e-31
9.6169897e-29
5.6128521e-27
3.0122139e-32
1.4828425e-32
4.1264021e-29
1.40946e-32
5.7119836e-34
4.5275631e-30
-2.0670594e-30
0
1.3189179e-29
9.1287848e-30
3.2168692e-27
-5.3019464e-33
6.380568e-26
2.8345865e-27
2.2239076e-24
-2.8290491e-26
4.5022392e-26
1.2474854e-27
4.6999506e-24
3.4938711e-27
3.4261843e-28
1.7878376e-24
6.4087145e-32
3.6444144e-29
2.1791477e-27
2.5014039e-34
7.4742388e-34
7.7779834e-32
2.3352071e-34
6.2482264e-34
8.2619641e-32
1.0338425e-35
3.1461163e-38
1.4704166e-32
8.4587959e-34
1.0720557e-29
8.6090226e-36
5.1956406e-29
2.8727145e-27
-1.9565525e-29
1.7869694e-28
6.0224877e-30
1.2733427e-27
3.6281242e-29
3.1587753e-31
3.4110174e-28
5.1615597e-30
3.8383546e-32
2.3701883e-29
2.7379919e-31
2.0547999e-36
2.2490959e-32
6.6738274e-34
6.0801838e-37
2.3304043e-34
4.2726742e-36
1.4460415e-37
1.3755129e-34
1.8866699e-36
8.3929255e-34
1.4091582e-38
1.2520544e-35
-1.1199868e-16
7.0774542e-17
5.2081132e-16
7.0906484e-17
-7.7720353e-23
0
2.4993044e-16
3.5966509e-22
-1.4158669e-23
4.8981556e-24
-1.86181e-17
3.5852033e-18
6.8136087e-17
-3.3142255e-16
1.9947671e-15
1.4835439e-14
-5.96603e-17
-1.4735088e-16
1.8012208e-15
-1.4676991e-18
-8.0471269e-18
6.3845483e-16
-4.8677122e-18
1.2833884e-15
-1.2202802e-21
0
1.8153479e-16
4.1848828e-15
-4.1158112e-16
1.0033935e-19
0
3.9304835e-17
1.002924e-19
-4.5023489e-24
1.423809e-21
9.3853986e-19
0
1.5493501e-17
5.9678056e-17
1.0287447e-17
6.6923565e-15
-4.4661985e-19
-1.3542753e-20
3.314555e-16
-1.0368284e-19
-3.4581567e-21
3.5517046e-17
-4.4535145e-20
1.0333502e-19
-3.3588339e-20
1.4834849e-17
0
2.1158016e-15
-9.5198459e-16
1.6660266e-22
0
1.0836874e-17
8.1673874e-23
6.5507659e-25
9.3176955e-22
2.8545275e-21
0
2.4917187e-19
1.3488474e-20
3.6599661e-22
1.1076912e-17
1.982735e-25
-3.221973e-24
6.1858233e-23
-3.3353438e-21
-5.9620624e-25
1.1786205e-23
-4.1552431e-26
3.9898971e-19
0
0
0
5.4902206e-17
0
2.4848837e-24
-4.2138766e-22
2.2852429e-20
8.8409572e-26
4.1182748e-25
1.0100051e-23
1.9055075e-24
2.4890232e-26
2.9134741e-22
2.1108169e-24
5.6684879e-26
6.5682002e-22
4.2067069e-25
-7.4829918e-27
2.5125559e-22
-5.3747577e-27
-9.1969901e-28
8.6082027e-24
-2.5138498e-25
8.3304178e-25
-4.0835202e-24
1.4077486e-19
0
2.8089662e-18
0
1.5386384e-22
3.9060425e-21
2.4756504e-19
7.4794037e-27
3.1559362e-24
9.0801672e-23
1.9830816e-28
2.2105377e-28
3.285106e-26
7.7603221e-28
2.4860885e-29
1.6885331e-25
3.0464644e-28
0
5.248962e-26
-3.752123e-26
-6.6688033e-30
9.7035798e-26
-2.3025167e-27
7.6557259e-24
-6.3553748e-27
1.2271335e-22
0
2.2229952e-21
-6.8088276e-25
1.7021158e-22
4.8557588e-24
9.3758279e-21
1.8825283e-26
4.7914726e-24
1.622209e-22
7.0103924e-31
3.4067335e-28
1.2186239e-26
9.1604609e-32
4.3179866e-32
6.6407867e-29
9.0802952e-32
1.7928913e-34
2.4920269e-29
-1.6011544e-30
0
2.2882851e-29
-1.5014839e-31
4.9732748e-28
-1.792148e-31
1.0101512e-25
9.3326863e-28
3.1339869e-24
-4.0980768e-25
1.1611038e-25
2.1337387e-28
7.6584896e-24
1.099997e-26
1.6440519e-27