/*--------------------------------*- C++ -*----------------------------------*\
  =========                 |
  \\      /  F ield         | OpenFOAM: The Open Source CFD Toolbox
   \\    /   O peration     | Website:  https://openfoam.org
    \\  /    A nd           | Version:  13
     \\/     M anipulation  |
\*---------------------------------------------------------------------------*/
FoamFile
{
    format      ascii;
    class       volScalarField;
    location    "0.09";
    object      alpha.water;
}
// * * * * * * * * * * * * * * * * * * * * * * * * * * * * * * * * * * * * * //

dimensions      [];

internalField   nonuniform List<scalar> 
51200
(
0
0
0
0
0
0
0
0
0
0
0
0
0
0
0
0
0
0
0
0
0
0
0
0
0
0
0
0
0
0
0
0
0
0
0
0
0
0
0
0
0
0
0
0
0
0
0
0
0
0
0
0
0
0
0
0
0
0
0
0
0
0
0
0
0
0
0
0
0
0
0
0
0
0
0
0
0
0
0
0
0
0
0
0
0
0
0
0
0
0
0
0
0
0
0
0
0
0
0
0
0
0
0
0
0
0
0
0
0
0
0
0
0
0
0
0
0
0
0
0
0
0
0
0
0
0
0
0
0
0
0
0
0
0
0
0
0
0
0
0
0
0
0
0
0
0
0
0
0
0
0
0
0
0
0
0
0
0
0
0
0
0
0
0
0
0
0
0
0
0
0
0
0
0
0
0
0
0
0
0
0
0
0
0
0
0
0
0
0
0
0
0
0
0
0
0
0
0
0
0
0
0
0
0
0
0
0
0
0
0
0
0
0
0
0
0
0
0
0
0
0
0
0
0
0
0
0
0
0
0
0
0
0
0
0
0
0
0
0
0
0
0
0
0
0
0
0
0
0
0
0
0
0
0
0
0
0
0
0
0
0
0
0
0
0
0
0
0
0
0
0
0
0
0
0
0
0
0
0
0
0
0
0
0
0
0
0
0
0
0
0
0
0
0
0
0
0
0
0
0
0
0
0
0
0
0
0
0
0
0
0
0
0
0
0
0
0
0
0
0
0
0
0
0
0
0
0
0
0
0
0
0
0
0
0
0
0
0
0
0
0
0
0
0
0
0
0
0
0
0
0
0
0
0
0
0
0
0
0
0
0
0
0
0
0
0
0
0
0
0
0
0
0
0
0
0
0
0
0
0
0
0
0
0
0
0
0
0
0
0
0
0
0
0
0
0
0
0
0
0
0
0
0
0
0
0
0
0
0
0
0
0
0
0
0
0
0
0
0
0
0
0
0
0
0
0
0
0
0
0
0
0
0
0
0
0
0
0
0
0
0
0
0
0
0
0
0
0
0
0
0
0
0
0
0
0
0
0
0
0
0
0
0
0
0
0
0
0
0
0
0
0
0
0
0
0
0
0
0
0
0
0
0
0
0
0
0
0
0
0
0
0
0
0
0
0
0
0
0
0
0
0
0
0
0
0
0
0
0
0
0
0
8.6257495e-28
0
2.248219e-62
9.9299401e-60
1.3754043e-77
-6.5073065e-55
-5.2696427e-56
1.9025767e-28
2.6635455e-30
2.0947816e-49
7.9300139e-46
6.9984218e-51
2.0937752e-49
2.3061465e-45
-8.5298629e-50
1.1713033e-28
2.0813929e-49
2.5089211e-45
2.8568553e-45
6.237514e-50
1.4250608e-43
6.2760293e-43
1.8224996e-34
4.7971198e-30
5.2149911e-58
1.6144773e-37
1.2309813e-37
4.0513079e-40
4.2252144e-45
1.3248937e-42
1.1028588e-35
3.1409553e-33
1.4580013e-47
3.3070233e-38
1.1118992e-38
7.1073722e-41
2.2445455e-48
5.137502e-41
1.8143279e-38
2.9114992e-45
2.0067149e-50
1.2028084e-39
7.0129927e-41
6.8311875e-43
3.9215394e-45
1.7650421e-42
1.7715492e-51
9.6993489e-48
8.1280277e-51
4.5686125e-42
2.4931713e-45
1.1194845e-45
1.4608532e-46
1.3866577e-45
2.2512978e-51
3.2848468e-49
9.8065303e-52
3.4993075e-47
1.9569864e-52
3.264545e-55
2.6873996e-49
-7.1345263e-67
1.3395078e-50
1.2239431e-52
5.1086012e-18
3.3180664e-18
2.1025632e-15
4.4877368e-14
1.507412e-15
9.742973e-40
4.8714562e-40
5.5221571e-37
1.6518674e-20
1.8693654e-20
1.1117527e-17
1.9004798e-16
6.383691e-18
5.3343115e-41
8.5753422e-41
2.2845768e-36
5.3706443e-20
4.5812214e-22
2.5735575e-24
4.1272406e-23
2.0594622e-28
5.3343115e-41
1.0668623e-40
9.6342509e-37
2.3939404e-21
2.1184574e-23
4.4453539e-28
1.8953186e-28
6.7310893e-33
7.772962e-37
2.0634655e-32
3.470092e-26
3.2805045e-24
7.8672145e-26
2.7077281e-30
4.7468019e-32
4.6535956e-32
3.8262055e-35
2.2287978e-29
2.8586368e-27
8.5541934e-35
6.3124511e-39
3.2621755e-31
1.2382292e-35
6.0046489e-37
1.3184138e-33
1.9386198e-30
1.2541651e-29
9.0882877e-35
5.6682592e-38
3.4603061e-34
8.9800575e-39
3.0901771e-40
1.0169956e-34
1.1927442e-32
8.2243124e-33
1.890586e-40
1.2197167e-44
4.7966899e-47
1.8414325e-48
4.5728438e-42
2.8828882e-37
5.1773324e-38
4.7533279e-41
3.941518e-18
7.7841999e-16
1.065174e-13
1.4472134e-11
2.4313614e-13
1.5137084e-10
0
7.4854752e-10
4.5184115e-23
2.890881e-17
5.0212086e-16
4.4475456e-14
1.5699007e-15
6.9221205e-13
1.4469941e-11
3.2736117e-12
5.7340773e-18
1.4691761e-20
2.6963381e-24
1.9537202e-22
2.2444603e-23
3.5636995e-17
6.8194903e-14
4.8883909e-26
1.4140636e-19
6.7003495e-23
4.446537e-28
9.6504415e-25
1.1499302e-26
9.4844315e-22
1.6076062e-27
3.3720623e-26
8.9364539e-22
2.0155063e-25
1.0029007e-30
1.40973e-29
2.4803802e-30
1.3252947e-25
1.7617687e-29
1.6381842e-27
1.0897275e-24
3.826716e-27
6.9171766e-31
4.2275998e-33
2.5116838e-33
1.0261993e-30
1.5750123e-30
1.5443492e-27
1.5140737e-31
1.5397877e-29
9.2111464e-32
9.1775129e-36
8.409569e-38
2.9899075e-34
1.9870763e-31
6.2072914e-29
1.025286e-34
6.9070381e-36
3.7437609e-33
1.5548114e-35
1.3382154e-40
1.0124199e-37
9.0042764e-36
7.5056345e-32
2.5618913e-18
2.5529349e-18
1.2012825e-12
4.1844705e-11
2.6933198e-17
3.5571776e-11
1.9122143e-07
2.1415266e-09
3.2967395e-13
8.8703222e-20
5.5768663e-15
2.6917536e-13
2.1577575e-17
3.3990119e-12
4.1406889e-10
2.5261857e-12
1.1226901e-14
2.5926596e-20
2.1628409e-23
8.9266273e-22
2.1577152e-17
3.4186584e-14
1.0366688e-14
2.3608061e-15
1.7641045e-17
2.4129732e-21
1.2508313e-26
1.28752e-25
2.5663403e-19
9.1474515e-21
5.5942002e-19
6.8141934e-17
3.1124799e-21
9.5349226e-23
6.2633536e-27
7.455945e-28
1.7118432e-25
9.2897263e-26
8.3078695e-22
1.4979715e-19
1.1163066e-23
1.1513577e-25
8.0555935e-29
5.5684404e-32
2.8267274e-31
7.0098031e-28
6.8791689e-24
1.6127025e-27
1.1947529e-29
2.2399332e-29
2.7609088e-31
6.3439077e-35
1.9904164e-32
2.4452283e-31
9.0058116e-30
9.7906083e-31
2.4821993e-32
4.587301e-34
8.1098811e-33
5.9616359e-35
7.5559694e-36
1.0794111e-34
1.7564018e-33
2.9353775e-33
4.7707605e-08
2.8119115e-18
7.7598327e-12
1.6606783e-11
2.7048774e-09
4.3056771e-14
3.7779537e-07
1.2573293e-10
3.1288327e-10
6.9505073e-13
3.2504925e-14
4.0788029e-13
1.0177988e-11
3.8693842e-14
2.2257445e-09
1.2566264e-10
4.8277621e-14
2.1441573e-14
4.3586141e-17
1.2997656e-16
3.0777221e-19
3.8693842e-14
1.1452782e-17
1.4129293e-12
3.432602e-17
6.8438691e-18
3.5687288e-21
1.3845732e-24
1.9618168e-19
3.2221765e-16
3.0226138e-19
6.4265385e-16
7.2882215e-21
7.7551251e-25
3.9815927e-28
2.5860696e-28
1.2204702e-21
4.6828614e-23
1.2853739e-20
5.0091794e-19
2.7073542e-23
8.3841683e-27
1.2705546e-28
2.0350174e-31
5.5527192e-29
1.7302986e-27
1.183115e-23
9.8103452e-27
2.6007114e-30
2.3782245e-27
2.1025831e-29
5.1556274e-34
1.8209859e-32
5.1714547e-31
9.968763e-31
2.7226854e-29
5.4102405e-31
8.758208e-30
1.3447935e-31
3.8854957e-35
1.9201629e-35
5.9417521e-34
2.7097562e-32
1.9292021e-30
5.1322452e-07
9.4147258e-08
1.0169332e-11
1.0580377e-12
1.1121471e-08
4.1755055e-06
3.5183373e-07
4.5964108e-07
4.3462544e-13
1.6510553e-10
1.9971802e-12
1.0572965e-12
5.1604971e-11
1.6246397e-08
1.3582548e-09
9.1471103e-10
4.3464702e-13
5.9212954e-14
8.1826542e-15
1.4257181e-14
4.2633424e-15
4.1161002e-16
7.4701973e-14
5.4334249e-12
1.7090332e-14
1.1815524e-16
1.3485614e-22
3.8237923e-19
7.9469604e-22
2.2671274e-16
3.826098e-20
1.0464626e-15
1.4850615e-17
6.4525556e-20
2.926609e-26
2.513993e-26
8.7727512e-22
8.9794142e-19
3.4890443e-20
6.5149662e-19
1.1260744e-24
8.2032275e-27
7.0171157e-29
9.6815869e-29
6.6863139e-24
3.0562369e-26
5.1758883e-22
1.3090316e-23
3.4099638e-28
4.0367006e-27
6.1330922e-29
3.3596677e-33
4.0241537e-31
8.5376744e-30
7.2355286e-28
2.4098453e-29
2.5930316e-30
7.1527323e-29
1.8252162e-30
1.903003e-35
3.8413748e-34
7.6886201e-33
3.4268074e-32
2.1568819e-29
8.1768815e-07
2.5809228e-07
1.7713652e-10
6.7838221e-08
1.0191051e-11
6.5507917e-06
1.5525035e-07
7.2970499e-07
3.2110165e-10
1.3343668e-09
3.4906306e-11
4.9698506e-11
1.0191732e-11
2.11741e-07
2.6067737e-09
6.6158287e-09
5.9840403e-15
2.772739e-14
2.4224897e-13
2.4781472e-14
1.8149581e-14
6.6246158e-12
3.1290005e-11
3.0328363e-11
6.0009066e-15
3.554556e-16
5.9678552e-21
4.1221421e-19
6.8003387e-22
8.1737836e-19
1.7328656e-19
5.0557001e-19
2.1087408e-16
7.0349205e-18
8.9834882e-22
1.2396269e-23
6.7935672e-22
2.812848e-19
8.302984e-22
6.547174e-19
4.2245418e-18
1.489418e-19
6.1676702e-23
4.3804971e-29
6.9187076e-24
9.8753115e-22
6.1214577e-22
3.8185693e-21
1.1131015e-20
4.1437311e-23
4.9066847e-25
4.1823633e-31
3.2223757e-28
3.6657617e-25
7.6642313e-24
2.1804282e-28
1.1658027e-27
7.4635e-29
4.3277347e-32
1.0168886e-34
3.6909643e-32
3.6284214e-28
9.6847644e-30
8.8629259e-31
6.5434132e-06
9.7108551e-08
7.628259e-13
3.765894e-07
1.2918962e-05
5.6218821e-06
7.2064109e-10
4.1733192e-07
8.4499777e-13
2.4390684e-09
7.7632795e-11
8.7252063e-10
3.9071998e-17
1.9447169e-07
4.3439826e-08
1.7661391e-08
3.2522915e-16
5.610068e-17
9.9511573e-13
1.5475412e-14
3.89078e-18
1.0025844e-11
3.6522999e-11
2.1279861e-10
1.1790653e-18
5.562702e-17
5.1949851e-17
3.5386942e-18
7.8603874e-22
1.6173455e-15
1.7251293e-15
1.1372301e-18
2.2163198e-20
5.0070011e-22
4.0356014e-24
1.7924556e-20
8.7789399e-22
1.7131203e-18
2.7014803e-18
1.1308907e-18
2.1113647e-20
4.0356002e-24
1.0599705e-24
1.6414736e-27
7.0788153e-24
1.7430274e-22
1.9003671e-22
2.5269679e-20
2.0180245e-18
4.5401924e-20
8.6456353e-24
4.1777132e-29
1.109984e-27
4.8627913e-24
7.0173286e-24
1.4804752e-23
8.4150426e-20
4.3421573e-21
4.3908758e-24
4.2707954e-31
8.8438282e-31
6.1349177e-26
2.3846092e-26
2.6069641e-30
2.0496702e-05
7.4794715e-08
1.6850769e-14
5.1870634e-07
4.1399513e-05
3.4001309e-06
7.159668e-10
7.1038171e-10
1.9798656e-06
1.4550349e-08
7.6163982e-13
1.3622768e-08
1.4463109e-06
2.3164892e-07
1.1855512e-07
1.8506791e-08
3.65716e-08
3.4504556e-16
7.705985e-13
2.2959226e-17
8.1888415e-17
1.8827543e-15
3.0313185e-15
5.164211e-10
1.3332645e-08
5.6069352e-17
3.7135159e-15
1.5235967e-18
1.2508073e-17
3.6740621e-15
3.0269516e-15
7.8217156e-18
2.916661e-09
1.1634263e-10
3.1156738e-15
1.8507604e-20
2.168985e-20
2.8309102e-17
9.7343783e-18
1.4067171e-17
1.9428099e-16
3.3327184e-12
3.0583143e-14
2.356017e-19
1.0824451e-23
3.62059e-23
4.471049e-21
2.2365197e-18
2.0392995e-18
8.2372348e-16
4.1679175e-16
4.6199988e-19
3.003597e-26
2.2056988e-23
6.4044544e-24
5.4013147e-21
1.9907348e-20
1.7479323e-21
7.5862589e-22
4.5865135e-21
6.2432072e-24
8.6581855e-26
4.4258302e-26
3.6105705e-29
1.5928448e-05
7.1012057e-07
1.5665468e-14
3.3369965e-07
4.1794685e-05
4.8098397e-06
3.9227019e-07
7.8259907e-07
1.108158e-05
6.0900799e-08
1.0245193e-14
1.7841819e-08
3.8029654e-06
3.2823307e-07
6.6687406e-08
2.2254669e-10
3.4242288e-06
1.0362336e-08
5.2935847e-15
9.5882857e-11
2.3971503e-14
8.1832386e-15
4.5720216e-15
5.3119741e-10
5.5927096e-08
8.7850765e-12
4.0607141e-15
7.3296541e-14
9.9832048e-16
7.813603e-14
6.1123421e-15
8.7063342e-16
2.6132959e-09
1.4740277e-10
3.7751917e-14
1.2731974e-18
1.8840577e-20
2.6258796e-17
3.4869422e-17
6.4000232e-15
2.8816312e-13
4.824038e-12
7.193974e-14
3.0307317e-18
6.9751471e-23
5.5714731e-21
8.1822716e-21
3.4494242e-19
5.8895752e-16
3.0766709e-15
1.4863347e-15
1.8914994e-18
8.2497174e-24
4.9766717e-23
1.3026263e-23
6.7464243e-21
1.2167677e-18
1.050793e-20
2.1428558e-19
2.7023806e-20
8.0785264e-24
4.1313927e-26
7.9340764e-26
7.4183588e-25
4.3951336e-06
1.4001541e-06
1.8652813e-09
4.2650657e-08
4.1794687e-05
7.1856985e-06
8.7106592e-06
2.7264719e-05
1.2435808e-05
1.2496764e-14
1.0513575e-14
1.2496764e-14
2.4779426e-05
5.667932e-07
7.1877532e-13
3.5983913e-13
2.5271432e-06
5.3354992e-09
8.3258632e-15
9.6441761e-10
4.4848623e-07
3.0267448e-14
1.6055552e-11
1.481972e-15
1.478542e-11
1.9462356e-11
3.9387286e-14
1.1216761e-11
9.3272819e-14
2.4250504e-12
2.3285632e-15
8.7984462e-16
1.8798281e-09
1.0159353e-10
1.8793335e-14
1.6963198e-18
3.6236204e-17
3.4734012e-15
1.9792614e-16
3.9457709e-14
3.089923e-12
3.6295222e-12
4.7195033e-14
1.8244434e-18
3.5422293e-20
1.1926571e-18
4.1960337e-19
3.2744961e-15
1.8408842e-15
2.2737256e-15
1.0709765e-15
8.378413e-19
9.7897461e-22
3.9705918e-19
9.1526644e-20
2.3761044e-17
5.2178776e-18
5.1331518e-19
3.4010697e-19
2.2901818e-20
7.1946419e-25
5.5800688e-21
1.4517376e-22
9.3341637e-25
1.7070324e-06
1.0085715e-06
3.3132784e-10
6.331481e-14
4.1793886e-05
7.108946e-06
1.1227765e-05
5.7791926e-05
6.3628586e-06
1.0513515e-14
1.0513575e-14
1.0513575e-14
4.1791076e-05
1.0996205e-06
1.0142451e-11
1.4436096e-05
6.8766858e-07
1.0578288e-14
1.0513529e-14
4.1543833e-10
5.6182379e-06
9.1029161e-08
5.2279331e-15
9.6573647e-13
1.3751674e-11
1.3753694e-11
9.770637e-13
1.2451596e-10
5.2364734e-13
1.4407045e-15
1.3242965e-15
1.4247525e-15
8.8632084e-10
5.0681625e-11
3.5326158e-14
1.9493929e-12
6.0309007e-15
5.6031582e-14
1.3587573e-15
2.8154181e-16
9.8325252e-16
1.9409411e-12
1.5512435e-14
4.9793832e-16
1.0656386e-17
1.044342e-16
1.7726912e-18
9.7387385e-15
1.4622242e-15
4.7910991e-16
3.8137365e-16
5.8524245e-20
2.2004547e-20
2.7088453e-18
6.5862603e-19
2.3497052e-15
1.0439927e-17
4.7294172e-19
1.7842809e-19
8.8911303e-21
1.0159869e-22
3.6333442e-20
2.0039736e-21
1.0459329e-16
2.043429e-06
1.7775544e-07
3.0514991e-10
3.1522402e-07
2.4931813e-05
5.1319579e-06
1.4655009e-05
5.7792265e-05
5.4842868e-07
2.3525798e-08
1.3629505e-09
2.433622e-11
4.1772394e-05
1.2868346e-06
1.1735977e-10
5.77919e-05
6.0588714e-07
1.1907261e-14
9.8621608e-15
5.9824894e-15
2.4030359e-05
8.4204185e-07
8.7882524e-11
2.3899536e-05
3.4508286e-10
1.2439456e-11
8.7131379e-13
4.3841276e-11
6.1022433e-07
9.2692627e-10
4.4594082e-16
6.5804028e-14
2.2874494e-10
1.9799207e-11
2.2300002e-13
2.2247713e-11
1.852803e-14
4.4594079e-16
4.3683871e-16
4.5653932e-16
5.008194e-16
7.3146006e-13
1.1541684e-14
3.0375344e-13
8.3410949e-17
8.2362542e-16
4.3479995e-16
2.2900226e-16
5.0063299e-16
5.3966391e-19
2.9055921e-16
1.3346144e-15
2.3715895e-19
1.4913343e-16
4.7986642e-17
1.208287e-14
1.4263199e-17
5.3935186e-19
6.8743923e-19
9.1516549e-18
1.4034136e-20
1.8865007e-17
4.7449628e-18
3.1073425e-15
2.5524346e-06
1.4706628e-09
4.22413e-09
2.2428513e-07
3.082748e-06
1.4082027e-06
2.3286229e-05
4.4848329e-05
3.4686159e-08
3.4690668e-08
4.7645045e-09
5.9824894e-15
3.582141e-05
3.0043264e-06
1.8689038e-07
5.5561724e-05
4.9973414e-07
3.1266556e-10
2.9191703e-12
2.7783962e-15
3.2936858e-05
1.1902555e-06
2.2743728e-08
4.0453179e-05
5.934562e-10
1.9287287e-11
1.3640848e-12
3.3241209e-15
3.341561e-06
1.5229907e-07
6.2024451e-14
2.3435862e-06
1.8516906e-11
7.4966029e-12
1.5454837e-12
8.2397853e-12
1.0854669e-12
3.2071651e-09
1.5485603e-11
3.4151954e-12
7.9237301e-13
2.2051336e-13
5.2211061e-14
2.9013221e-12
3.3217914e-15
2.1318292e-16
5.0097143e-12
2.5965384e-14
5.8094729e-19
4.0520341e-18
6.248946e-15
5.298165e-13
1.2353349e-14
2.1031962e-16
4.6331161e-16
1.2211816e-14
2.6274784e-17
6.7847386e-19
2.7066308e-16
1.7400918e-14
6.7432113e-16
1.4092907e-16
2.8879935e-17
6.9661779e-15
2.6436071e-06
8.4248693e-11
3.3230852e-09
1.3828889e-08
1.3860069e-08
4.8733499e-07
1.436813e-05
7.1066323e-06
8.7691938e-08
3.2903745e-08
1.6139343e-09
7.5868366e-10
5.2569495e-06
3.5845249e-06
2.7210379e-06
1.8194631e-05
1.0097246e-07
3.1886803e-12
9.4452641e-13
2.6723899e-15
3.2924189e-05
1.2528673e-06
1.7191334e-06
4.0437128e-05
3.2596642e-10
1.6938236e-11
1.5664775e-12
2.6655986e-15
2.0943888e-05
8.71728e-07
5.8708179e-08
5.5352294e-06
1.5174389e-12
2.1538451e-12
2.1120353e-12
2.6593376e-15
2.6339623e-06
1.9710868e-07
2.5588682e-09
2.0296809e-14
1.4592928e-12
2.7879146e-14
2.5887784e-13
7.756081e-12
1.221427e-12
8.2222607e-10
4.299125e-14
4.0844535e-15
5.2691529e-19
2.2308639e-16
1.0433097e-13
1.9449683e-12
7.5052095e-15
1.1398116e-12
4.1868636e-13
3.9207858e-15
3.8910766e-17
1.9197017e-17
9.2400408e-15
1.4455537e-13
4.3280356e-16
1.9004561e-15
3.5031875e-15
5.8542909e-15
1.6527287e-06
8.1401376e-11
4.6150076e-08
7.5593658e-12
1.9918117e-05
3.7008594e-07
6.1299762e-07
3.1507864e-06
1.1814119e-07
6.5177569e-08
6.1289815e-07
2.6723899e-15
5.0546777e-06
2.924856e-06
4.0820681e-06
5.3709631e-06
5.4387246e-10
1.6050983e-08
3.1633265e-15
2.6655986e-15
3.2895158e-05
3.472514e-06
3.8143315e-07
4.0387679e-05
5.4361339e-10
6.1849803e-15
2.3001126e-15
2.6593376e-15
3.2356922e-05
3.2519439e-06
1.0364626e-06
3.5636277e-05
1.123339e-11
1.7825989e-12
1.0583244e-15
2.2938516e-15
6.3434881e-06
6.0664977e-07
4.9775841e-08
6.1823642e-06
1.1614519e-11
1.6079883e-18
9.549087e-17
1.0583434e-15
2.8440936e-14
3.7422192e-11
1.6406505e-15
1.0884614e-13
5.2215137e-19
4.0153428e-19
1.6079883e-18
4.2647099e-16
8.0032885e-15
2.084313e-16
4.270118e-17
1.8234435e-15
4.0153428e-19
2.8450862e-19
4.0157234e-19
2.4884733e-17
1.0665618e-16
4.2528738e-17
2.7329039e-17
2.0853594e-16
8.5374092e-07
8.1023513e-11
8.0645649e-11
0.0001936752
3.9600905e-05
1.8269372e-07
3.4136378e-07
4.4374906e-06
1.5484555e-06
5.1404663e-09
9.7525185e-11
0.00018387649
3.2194076e-05
4.3865431e-07
2.7911835e-06
1.8249322e-05
8.4666321e-10
8.0153189e-09
1.1899477e-06
0.00013338545
2.9871396e-05
3.2819079e-06
3.6100628e-08
4.0324798e-05
9.406988e-10
7.0626886e-09
1.8487592e-07
9.2559759e-05
2.5276654e-05
2.9828545e-06
1.041695e-06
4.0277789e-05
1.7746313e-11
3.8632825e-10
3.7185626e-08
5.9394225e-05
7.3546782e-06
1.4772329e-07
2.7620556e-07
1.9750434e-05
2.0451571e-10
3.0979471e-09
1.1017887e-08
2.6494555e-05
3.2738628e-06
4.6247961e-11
1.083774e-08
7.8384585e-08
5.7276047e-10
2.0987224e-09
4.2646551e-16
8.3249897e-15
9.9417113e-08
4.7835575e-08
1.6432005e-15
2.7153177e-13
8.5675036e-11
8.065475e-18
4.3077018e-17
1.6287458e-14
9.9906061e-14
1.1225762e-10
3.3138239e-12
2.6519876e-14
3.01392e-07
4.4713847e-09
8.0645649e-11
0.00056454216
2.0183482e-05
7.2739586e-07
2.6626642e-07
2.2881405e-06
1.753998e-06
3.6963403e-11
2.2013458e-05
0.00056504924
3.3146108e-05
3.7825852e-07
3.7753083e-07
1.3763496e-05
1.967769e-11
2.120508e-11
2.5439491e-05
0.00056583968
3.1727844e-05
1.1189623e-06
3.6002056e-08
2.4302227e-05
6.2901474e-10
2.9576722e-11
2.9233745e-05
0.0005661069
2.8830744e-05
1.9093284e-06
3.6100628e-08
4.0240096e-05
2.8727429e-11
2.9380677e-11
2.5237782e-05
0.00056496765
2.1802733e-05
5.901736e-09
4.660929e-07
3.6091578e-05
7.9746737e-10
3.3226785e-11
1.7871273e-05
0.00056550946
7.7906304e-06
1.8251191e-09
1.8844319e-07
1.0633103e-05
2.0929833e-09
1.8176268e-09
1.4520125e-05
0.00056439063
5.6132975e-08
5.6065013e-08
1.0647233e-07
8.3132138e-08
1.1703065e-09
1.0486527e-15
2.5657362e-05
0.00043680402
9.0182189e-06
4.8768481e-11
5.850875e-09
8.3468678e-13
3.050737e-08
2.6219252e-09
5.2390974e-05
0.00056504924
0.00018151099
5.0068844e-06
3.0548284e-07
1.0619761e-06
6.2598191e-07
1.9569475e-10
9.1682866e-05
0.00056586296
0.00017117683
3.087151e-06
1.285426e-07
1.5024605e-05
1.9679171e-11
1.9679171e-11
0.00012021939
0.00056622954
0.00029727003
1.0384155e-06
3.6014279e-08
1.3127918e-05
4.0210483e-11
3.6611647e-11
0.00010701131
0.00056612414
0.00018360619
1.4168947e-05
3.6014279e-08
2.9860911e-05
2.5187815e-11
3.3226751e-11
0.00010283472
0.0005662117
5.1919303e-05
8.9036306e-06
7.7661893e-08
4.0448215e-05
1.6459305e-11
6.0409792e-11
0.00013334925
0.0005661238
0.00020277319
6.0756869e-06
1.3915213e-09
3.3501389e-05
1.5846745e-09
8.8368529e-10
0.0001202728
0.00056550946
0.0003997758
4.9385272e-08
4.5942927e-10
9.047682e-06
1.3902249e-09
8.6321292e-10
0.00014819313
0.00056466945
0.0001374536
3.6385989e-10
1.3967599e-10
3.6216703e-11
4.955743e-11
1.4745626e-05
0.00024384945
0.00019932449
0.00020259024
3.6202236e-05
2.5671787e-07
2.264645e-07
2.4319585e-11
3.2034381e-05
0.00024616068
0.00018273203
0.00016057605
5.0519492e-05
6.7694875e-07
8.9046475e-06
1.967769e-11
5.6891908e-05
0.00024619525
7.78335e-05
4.0084932e-05
5.8741028e-05
1.1544464e-05
3.0598778e-06
2.4319585e-11
1.5569925e-05
0.00018921511
4.5866376e-05
1.0962583e-05
1.0842833e-05
1.1908895e-06
2.2927935e-05
1.2015471e-06
0.00016750517
0.00020152769
7.4019624e-05
0.00010908805
3.9330174e-05
9.6375566e-08
3.9741135e-05
1.0469347e-11
0.0001337785
0.00045735233
0.00016660848
0.00030941156
0.00018383731
4.7040903e-05
8.165584e-06
9.1994757e-12
3.4508126e-05
0.00055812445
0.00032398315
0.00043358918
0.00043358918
0.00012002627
2.5746109e-09
1.0163042e-10
6.5093726e-05
0.00055805346
0.0005551064
0.00042962283
0.00038882042
6.3224907e-05
2.1374504e-09
7.0143025e-11
3.488972e-05
0.00016194045
3.4305906e-05
3.408096e-05
2.8272951e-05
1.2788355e-05
4.7666034e-07
3.3651343e-07
6.4197844e-05
0.00012344652
6.0866408e-05
3.9843551e-05
1.7058749e-05
9.4482264e-07
1.5369757e-06
1.0071813e-05
3.2907343e-05
3.3239056e-06
4.4497977e-05
2.3079608e-05
1.6420073e-05
4.003658e-06
3.9879298e-06
3.9188214e-05
4.2960622e-05
6.1294126e-06
8.9074309e-06
1.3089996e-05
2.6418636e-05
1.040421e-05
2.0635598e-05
4.7705638e-05
0.00015201017
3.2617225e-05
6.8670875e-05
7.0884017e-05
3.8268459e-05
7.6469802e-05
7.5344196e-05
2.3688537e-05
0.00021391832
0.00024361001
0.00010621944
8.7394575e-05
7.6597187e-05
0.00010865394
6.265374e-05
4.1280767e-06
0.00019419855
0.00050322153
0.00027254312
0.00010489715
0.00022592833
0.00027659477
0.00010778472
6.0489285e-06
0.00013722732
2.2109505e-06
0.00044473392
0.000263112
0.00031785186
0.00027766308
9.6221713e-05
2.2005566e-07
9.6159483e-06
3.6221586e-06
0.016312845
0.0042991218
3.3436689e-06
1.3466228e-05
3.3762716e-06
7.756693e-07
4.9089489e-05
3.1123334e-06
0.016970804
0.0038922769
3.0686274e-06
2.9757247e-06
5.2641763e-06
1.3688054e-05
5.9678732e-05
3.1524431e-06
0.015395051
0.0033653498
5.6503598e-05
1.6785461e-05
3.6330937e-05
3.4425195e-05
5.9870549e-05
3.1123144e-06
0.014496892
0.0028698363
0.00012144652
0.00017107294
2.842454e-05
1.1036115e-05
5.9959093e-05
5.6100911e-06
0.012750467
0.0025019934
0.00015841087
0.00026377513
8.6856336e-05
3.8711665e-06
2.1772546e-05
0.00021325353
0.0090469508
0.0021572924
0.00027076949
0.00026471168
0.00022358155
1.394494e-07
2.3729479e-05
0.00036239935
0.0081452968
0.0019625112
0.00021067408
9.9078351e-05
0.00020126254
3.9296243e-07
1.4820243e-05
7.4046164e-06
0.0077361577
0.0018012802
9.2457987e-05
7.3003991e-05
0.00012634211
1.9293207e-07
1.4336931e-07
0.00057268565
0.1488054
0.037962613
3.5282452e-06
1.6043164e-05
3.5148514e-06
8.0932747e-07
1.1746101e-07
0.0033536331
0.15283697
0.041741547
3.4501375e-06
2.5754112e-05
9.267903e-06
6.0328955e-06
1.1068794e-07
0.0037742959
0.14808293
0.040736586
0.0010167334
3.2831099e-05
4.0768316e-05
4.5672204e-06
6.3119222e-08
0.0046279459
0.14283151
0.041140993
0.0011147265
0.00010612176
9.5627499e-05
1.7368194e-08
4.2544926e-08
0.0080047588
0.12848528
0.041036045
0.0005491192
8.0457511e-05
0.00014072835
1.226921e-08
1.0991705e-07
0.0080826102
0.11514158
0.0336814
0.00035425211
4.7166377e-05
0.00014157061
3.1701611e-08
1.5588782e-07
0.0099720899
0.095227754
0.019256802
0.0007140588
1.7131271e-05
5.0350611e-05
3.8013838e-08
0.00029210578
0.017639867
0.032790191
0.0079759358
0.0012563151
4.9669091e-06
2.240537e-05
4.1321797e-06
1.1746095e-07
0.021691571
0.1893486
0.18737564
0.0025272915
5.5136121e-07
3.1977275e-06
1.1746101e-07
9.7528213e-08
0.031932933
0.1893486
0.18934859
0.008607199
5.360362e-07
1.4914642e-06
7.8427619e-07
6.2951892e-08
0.032142669
0.18934859
0.18864801
0.0079627258
3.5955924e-07
2.2951292e-05
3.1639858e-08
3.9930784e-08
0.033965417
0.18934853
0.18800344
0.0068337902
2.8311403e-07
5.3066792e-05
1.6116473e-08
3.2839704e-08
0.030977037
0.18934399
0.176779
0.013208225
8.443617e-07
8.1727926e-06
1.4432483e-08
8.7606807e-07
0.027354144
0.18907897
0.13616466
0.016822044
5.4205007e-06
3.6743471e-06
4.5902547e-10
1.2907812e-06
0.038257115
0.17751984
0.10881054
0.020729063
3.3034069e-06
2.3385923e-06
3.1396159e-09
3.5002296e-05
0.049642633
0.15437492
0.11134571
0.015640634
4.5140947e-06
1.0826383e-06
8.8254478e-05
1.4336946e-07
0.034017395
0.1893486
0.1893486
0.0078615762
5.0257374e-07
5.4885381e-06
0.00012759178
1.1892266e-07
0.044200231
0.1893486
0.18934859
0.017749706
3.5952051e-07
1.3510677e-05
2.1484939e-05
1.1627941e-07
0.045262458
0.18934859
0.18934851
0.017576905
2.6579301e-07
5.3863189e-06
2.858353e-05
6.2951892e-08
0.046328583
0.18934851
0.18934575
0.021123533
1.9038097e-07
1.2197813e-07
0.0004536786
3.9930115e-08
0.047492883
0.18934583
0.18929441
0.019225541
1.5755185e-07
3.0224885e-08
0.00098769647
0.00016684003
0.040120941
0.18928247
0.18910767
0.015674475
3.6727804e-07
3.2893676e-07
0.00076961468
0.00012301334
0.05219809
0.18240688
0.18879099
0.0062968156
1.5583595e-06
5.0589551e-06
0.00053130425
0.00043085277
0.023958179
0.16017149
0.18489388
0.00079526758
4.6758573e-06
2.2320488e-05
0.0007188714
0.0011956525
4.342795e-05
0.071414637
0.094549476
1.0287427e-06
9.2329376e-05
0.00012815637
0.00072549525
0.0013143372
4.2971321e-05
0.076096934
0.098325341
1.4116377e-06
8.2118792e-05
7.8463086e-05
0.00049202853
0.0012511667
4.256468e-05
0.070018756
0.096268782
1.8680604e-06
9.2295102e-06
3.751184e-06
0.00012873724
6.6062264e-05
4.3024377e-05
0.067238517
0.094540488
2.2619872e-06
2.2424452e-06
2.3510248e-05
0.0013785549
0.00013099481
4.5047198e-05
0.057128341
0.089158967
2.2962659e-06
2.0917266e-05
5.3182991e-05
0.0031872677
0.00095536275
0.0012318896
0.043729262
0.083299607
2.7201967e-06
3.1239288e-05
5.4309578e-05
0.0033195131
0.0014818137
0.00079980913
0.027347855
0.067018204
3.5329979e-06
4.06273e-05
5.4367751e-05
0.0033512897
0.0017067047
0.0015029926
0.025618361
0.053828396
3.0785543e-06
5.6263271e-05
5.4073979e-05
2.5935416e-05
0.00014836087
0.00013440381
0.0034532327
0.017119832
6.2078406e-07
5.6714428e-07
4.7883065e-06
2.5679124e-05
3.3328527e-05
5.158489e-05
0.0032466369
0.018739476
1.0287427e-06
5.6776516e-06
3.4098543e-05
2.9426342e-05
5.1809418e-05
4.256468e-05
0.0029848832
0.016130707
1.4116377e-06
4.5010569e-05
1.9473764e-05
3.5024282e-05
4.7547409e-05
4.2474022e-05
0.0029972871
0.015196018
1.8680604e-06
4.1599853e-05
6.3087742e-06
3.0185764e-05
3.2897528e-05
4.1761274e-05
0.0027644299
0.012035787
2.5360729e-06
2.7304259e-06
1.7377084e-05
4.3472759e-05
0.00048386541
6.0769044e-05
0.0026626481
0.008764477
2.7262597e-06
1.9272689e-05
5.4555799e-05
2.7383622e-05
0.00084857335
7.4596366e-05
0.0028580071
0.0071525249
2.9690304e-06
4.4976856e-05
5.5227042e-05
6.8037794e-06
1.3611975e-05
0.00012208769
0.0018936427
0.0033816671
3.772975e-06
5.6319651e-05
5.593098e-05
4.1142824e-05
7.4741696e-05
0.00039869106
0.0002445757
2.3219836e-05
0.00018684511
3.5576639e-07
3.9872309e-08
2.5485123e-05
7.9840116e-05
0.00027767577
0.00019968669
7.036926e-05
3.2859306e-05
4.1157158e-07
3.6977142e-06
4.4481483e-05
0.00011119304
0.00015668158
0.00012569057
0.00011713408
2.5409384e-06
7.3863415e-05
1.8605132e-05
0.00012138377
4.4385382e-05
4.3296426e-05
5.782313e-05
0.00011980559
3.2123138e-05
0.00011763259
7.6337912e-06
1.1669989e-05
0.00025781195
4.672407e-05
0.00031536566
0.00012317633
0.0001014258
0.00011753987
5.2472595e-07
1.834197e-06
6.935623e-05
8.7085435e-05
0.00022724487
9.6106963e-05
0.00023500644
4.5187418e-05
9.6614588e-07
1.5985052e-06
5.3316088e-05
8.6945299e-05
3.9774468e-05
8.1243538e-05
0.00022697662
3.1639544e-06
7.3452233e-06
1.5172156e-06
1.6855589e-05
7.4703213e-05
0.00015533797
0.00024528427
0.00015896275
2.7961623e-06
1.4120063e-05
0.0001018347
0.00059492538
0.0010470663
0.00031694452
1.9550048e-05
0.00018647064
4.3220613e-05
3.9884882e-08
2.7538917e-05
0.00056252008
0.0011537495
0.00030833097
1.2304154e-05
0.00013155635
7.3736669e-06
3.9878801e-08
7.0199806e-05
0.00079247779
0.0011889889
0.00017753165
5.4495233e-06
3.7028507e-05
5.7570647e-06
7.9959685e-06
0.0002161528
0.00099027028
0.0011888681
0.00013723834
7.6230256e-07
6.9922929e-06
1.3554436e-05
1.3540464e-05
0.00084717453
0.00036677763
0.0011891025
3.9296692e-05
5.0196593e-06
2.0010635e-05
7.8810917e-05
1.6410387e-06
0.00085467518
0.00115974
0.001189218
1.2796073e-05
6.1854779e-06
5.3512767e-05
0.00010514718
4.358555e-07
0.0004357426
0.0011889417
0.00070451982
8.9627262e-06
4.438324e-06
9.7306615e-05
0.00010102881
5.3487166e-08
0.00038308332
0.00054668977
1.6794151e-05
1.0020937e-05
8.171884e-06
0.00013706099
1.1346177e-05
4.6816741e-08
0.0001128216
0.0011894521
0.0011894561
0.00087087401
3.3315859e-05
0.00018625467
5.7616877e-05
3.9871946e-08
0.00024329255
0.001189448
0.0011894559
0.00063777249
2.773599e-05
0.00018618567
8.1307531e-06
3.9945806e-08
0.00028166106
0.001189248
0.0011894506
0.00083609896
7.623016e-07
0.00015318459
4.5385469e-06
3.18528e-06
0.00034979131
0.0011888104
0.0011894112
0.00081419042
5.9548055e-07
4.7052079e-05
2.353357e-06
1.3463927e-05
0.00036621124
0.0011892267
0.0011893243
0.00054657423
1.5380009e-06
2.729706e-06
4.382115e-06
1.0436941e-06
0.00041148154
0.0011889842
0.0011893049
0.00026029562
4.48385e-06
4.3742382e-06
3.6648566e-05
2.7762773e-07
0.00035230132
0.0011890574
0.0011892409
0.00013447145
2.3988582e-06
8.1879424e-06
7.8939398e-05
4.6816727e-08
0.00029658454
0.0011889333
0.0010686219
6.1201146e-05
7.5867369e-06
1.6004131e-05
5.033329e-05
4.1940108e-08
4.1701158e-05
0.00077291557
0.0011894611
0.00070512082
3.3069629e-05
8.1821349e-05
5.0943989e-05
1.0134081e-05
8.6774059e-05
0.00095684328
0.001189462
0.0008115977
5.930943e-05
0.00010285923
3.2464221e-05
4.1028817e-08
5.3656071e-05
0.0010780919
0.0011894326
0.0011894011
1.7007352e-05
0.00015301297
1.8484077e-07
4.6940515e-07
5.7342201e-05
0.001165011
0.0011894129
0.0011874882
4.0951683e-07
0.00015281779
1.086616e-07
3.8623367e-06
4.915804e-05
0.001189319
0.0011893974
0.001157081
3.3874916e-07
5.6906191e-05
1.0871192e-07
2.8786449e-06
0.00010812578
0.001189223
0.0011893242
0.0011885582
2.6706415e-07
7.694067e-06
4.7129411e-07
2.9469841e-07
0.00010989635
0.001189135
0.0011893049
0.0011518494
2.3507697e-07
2.9059741e-07
4.6979691e-06
1.2022479e-07
0.00015127178
0.0011430155
0.0011892409
0.00085835348
5.8642431e-06
4.8841155e-07
1.2739396e-05
4.883898e-08
6.9845257e-06
0.00011086086
0.00064698215
0.00019290448
8.113312e-06
6.1263273e-07
2.2678125e-05
1.8718925e-05
2.3139824e-06
0.00016756093
0.00082983005
0.00023887245
2.3421815e-05
1.9081479e-05
4.265451e-05
1.4646001e-06
4.055462e-08
0.00016132983
0.00091937959
0.00080934598
2.4610986e-05
7.3807102e-05
7.1484305e-07
4.791987e-08
4.1486618e-08
0.00024473242
0.0009011414
0.00087266938
5.6075365e-07
0.00011789038
1.087119e-07
3.0927718e-07
4.1677142e-08
0.0003132763
0.0008623751
0.00086737605
3.3783181e-07
9.3093554e-05
1.0260363e-07
2.9030881e-06
7.6753759e-08
0.00037085602
0.00085532882
0.0010020399
2.3508541e-07
4.5989256e-05
9.5055361e-08
6.5433354e-07
1.4738349e-05
0.00041497676
0.00085679037
0.000825132
1.9546726e-07
8.5663415e-06
9.2737315e-08
1.7259314e-07
3.8321674e-05
0.00032544893
0.00081010802
0.00081034125
1.4279441e-07
1.2964637e-07
1.164635e-07
1.2264989e-07
3.3455086e-06
3.6117593e-06
8.7992075e-06
1.2707748e-06
9.4010492e-07
1.0238914e-07
4.5846685e-06
1.1783174e-05
1.9609699e-06
3.3776834e-06
3.3495914e-05
3.4652154e-05
1.9953482e-06
1.5289071e-06
3.9759132e-05