/*--------------------------------*- C++ -*----------------------------------*\
  =========                 |
  \\      /  F ield         | OpenFOAM: The Open Source CFD Toolbox
   \\    /   O peration     | Website:  https://openfoam.org
    \\  /    A nd           | Version:  13
     \\/     M anipulation  |
\*---------------------------------------------------------------------------*/
FoamFile
{
    format      ascii;
    class       volScalarField;
    location    "0.09";
    object      p_rgh;
}
// * * * * * * * * * * * * * * * * * * * * * * * * * * * * * * * * * * * * * //

dimensions      [1 -1 -2 0 0 0 0];

internalField   nonuniform List<scalar> 
51200
(
0.87437794
0.86059377
0.85257149
0.84945137
0.84944997
0.85256747
0.86058771
0.8743707
0.86426472
0.85108038
0.84375243
0.8409725
0.84097115
0.84374853
0.85107444
0.86425752
0.85492014
0.84257279
0.83589715
0.83340399
0.83340269
0.83589337
0.84256702
0.854913
0.84731186
0.8358589
0.82981797
0.82757002
0.82756877
0.82981433
0.8358533
0.84730482
0.84089035
0.83031476
0.82489582
0.82286459
0.82286339
0.82489233
0.83030936
0.84088344
0.83529128
0.82556043
0.82074067
0.81890399
0.81890285
0.82073733
0.82555523
0.83528453
0.83039349
0.82143889
0.81719136
0.81553354
0.81553245
0.81718817
0.82143391
0.83038692
0.82616276
0.81777141
0.81410156
0.8126144
0.81261337
0.81409853
0.81776666
0.8261564
0.78703179
0.7863016
0.78582917
0.78532238
0.78532085
0.78582479
0.78629496
0.78702379
0.78804234
0.78743242
0.78694658
0.78644195
0.78644048
0.78694233
0.78742595
0.78803438
0.78917152
0.78873801
0.78824301
0.78773628
0.78773487
0.78823892
0.78873173
0.78916365
0.79032323
0.79004256
0.78953493
0.78902635
0.789025
0.78953099
0.79003648
0.79031547
0.7914907
0.79129846
0.79077507
0.79026879
0.7902675
0.7907713
0.79129262
0.79148308
0.79262454
0.79245116
0.7919136
0.79141592
0.79141469
0.79191
0.79244556
0.79261711
0.79367158
0.79345985
0.79291312
0.79243036
0.79242918
0.7929097
0.7934545
0.79366436
0.79452773
0.7942588
0.79370762
0.79324177
0.79324066
0.79370438
0.79425371
0.79452077
0.78883405
0.78756689
0.78680365
0.7864349
0.78643306
0.78679827
0.78755876
0.78882428
0.78913504
0.78788381
0.78717721
0.78682068
0.78681891
0.787172
0.78787588
0.78912532
0.78943684
0.78821565
0.78756974
0.78722349
0.78722178
0.7875647
0.78820794
0.78942719
0.78957865
0.78840162
0.78782315
0.7874924
0.78749076
0.7878183
0.78839415
0.7895691
0.78959662
0.78848497
0.78797615
0.78766552
0.78766395
0.78797149
0.78847775
0.78958721
0.78955257
0.78851884
0.78807827
0.78779179
0.78779031
0.78807381
0.78851191
0.78954334
0.78944811
0.78850285
0.78813497
0.78787888
0.78787746
0.78813072
0.78849622
0.78943911
0.78912562
0.78836224
0.78809027
0.78787515
0.78787382
0.78808624
0.78835593
0.78911692
0.77862744
0.77839104
0.77842324
0.77851227
0.7785099
0.77841627
0.77838058
0.77861502
0.77881923
0.7786325
0.77867374
0.77874265
0.77874037
0.77866699
0.77862229
0.77880686
0.77901794
0.77887668
0.77893161
0.77898289
0.77898069
0.77892508
0.77886676
0.77900565
0.77919924
0.77909486
0.77916699
0.77920622
0.77920411
0.7791607
0.77908524
0.77918705
0.7793688
0.77929892
0.77939058
0.7794222
0.77942019
0.77938454
0.77928962
0.77935677
0.77953864
0.77950041
0.77961196
0.77963937
0.77963745
0.77960617
0.77949145
0.7795268
0.77970604
0.77970455
0.77983598
0.77986326
0.77986144
0.77983046
0.77969596
0.77969445
0.77980579
0.77992369
0.78007396
0.78010788
0.78010615
0.78006871
0.77991548
0.77979455
0.77305792
0.77289007
0.7729996
0.77319739
0.77319417
0.77299014
0.77287603
0.77304146
0.77315841
0.77302841
0.77314878
0.77332468
0.77332159
0.77313962
0.77301471
0.77314201
0.77326839
0.77317367
0.77330712
0.77346355
0.77346057
0.77329826
0.77316033
0.77325207
0.77336143
0.77329623
0.77344641
0.77358949
0.77358663
0.77343786
0.77328328
0.77334524
0.77344023
0.77340207
0.77357252
0.7737073
0.77370456
0.7735643
0.77338953
0.77342421
0.77351174
0.77349806
0.77369179
0.77382221
0.7738196
0.77368391
0.77348595
0.77349595
0.77357151
0.77359044
0.77381067
0.77394091
0.77393843
0.77380314
0.7735788
0.77355602
0.77358922
0.77371538
0.77396195
0.77409738
0.77409502
0.77395479
0.77370423
0.77357415
0.76778683
0.76771247
0.76788035
0.76811352
0.76810907
0.7678673
0.76769335
0.76776472
0.76785018
0.76780999
0.76798508
0.76819656
0.76819226
0.76797243
0.76779132
0.76782813
0.76792011
0.76791173
0.76809533
0.76828749
0.76828335
0.7680831
0.76789354
0.76789817
0.76798395
0.76800098
0.76819489
0.76837287
0.7683689
0.76818309
0.7679833
0.76796216
0.76804314
0.76808112
0.76828743
0.76845546
0.76845166
0.76827606
0.76806396
0.76802156
0.7681011
0.7681555
0.76837633
0.76853781
0.76853418
0.76836541
0.76813891
0.7680798
0.76815477
0.76822828
0.76846578
0.76862427
0.76862081
0.76845534
0.76821229
0.76813384
0.768186
0.76832644
0.76858011
0.76874012
0.76873683
0.76857017
0.76831108
0.7681656
0.7631077
0.76305382
0.76319592
0.76340028
0.763394
0.76317768
0.76302745
0.76307764
0.76314714
0.76311968
0.76326866
0.76345565
0.7634496
0.76325098
0.76309391
0.76311715
0.7631913
0.76318869
0.76334512
0.76351655
0.76351072
0.76332801
0.76316354
0.76316142
0.76323171
0.76324939
0.76341425
0.76357407
0.76356846
0.76339772
0.7632249
0.76320202
0.76326939
0.76330414
0.76347881
0.76363029
0.76362492
0.76346289
0.76328036
0.76323996
0.76330693
0.76335559
0.76354149
0.76368725
0.76368211
0.76352619
0.76333255
0.76327784
0.763343
0.76340713
0.76360547
0.76374817
0.76374327
0.76359081
0.76338489
0.76331438
0.76336597
0.7634767
0.76368658
0.76382945
0.76382479
0.7636726
0.7634553
0.76333805
0.75872416
0.7586841
0.7587878
0.75894572
0.75893679
0.7587621
0.75864743
0.75868296
0.75874978
0.75872963
0.75883973
0.75898505
0.75897643
0.7588148
0.7586937
0.75870862
0.7587788
0.75877752
0.75889422
0.75902823
0.75901992
0.75887008
0.7587424
0.75873777
0.75880576
0.75881985
0.75894339
0.75906883
0.75906084
0.75892005
0.7587856
0.75876495
0.75883122
0.75885804
0.75898906
0.75910826
0.7591006
0.75896655
0.75882473
0.75879073
0.75885685
0.75889384
0.75903311
0.75914799
0.75914066
0.75901147
0.75886154
0.7588168
0.75888179
0.75892958
0.75907764
0.75919015
0.75918315
0.7590569
0.75889836
0.75884235
0.75889752
0.75897658
0.75913243
0.75924481
0.75923815
0.75911264
0.75894651
0.758859
0.75454221
0.75450865
0.75457136
0.75468008
0.75466724
0.7545349
0.75445722
0.75448543
0.7545594
0.7545404
0.75460913
0.75470962
0.75469722
0.75457372
0.75448989
0.75450262
0.75457903
0.75457391
0.75464867
0.75474179
0.75472983
0.75461433
0.75452441
0.75452234
0.75459733
0.75460342
0.75468407
0.75477163
0.75476011
0.75465084
0.75455504
0.75454087
0.7546146
0.75462981
0.75471654
0.75480012
0.75478906
0.75468447
0.75458268
0.75455852
0.75463199
0.75465423
0.75474741
0.75482835
0.75481777
0.75471656
0.75460847
0.75457646
0.75464895
0.75467833
0.75477811
0.75485777
0.75484768
0.75474854
0.75463409
0.75459421
0.75465923
0.75470957
0.75481489
0.75489474
0.75488515
0.75478667
0.75466697
0.75460573
0.7505033
0.75047407
0.75050161
0.75056604
0.75054737
0.75044916
0.75040088
0.75042393
0.75051545
0.75049669
0.75052968
0.75058937
0.75057131
0.75047864
0.75042456
0.75043592
0.75052935
0.75052058
0.750559
0.75061452
0.75059707
0.75050942
0.75044968
0.75044979
0.7505422
0.75054135
0.75058487
0.75063737
0.75062055
0.75053684
0.7504719
0.75046283
0.75055418
0.75055951
0.75060814
0.75065863
0.75064248
0.75056176
0.75049175
0.75047524
0.75056606
0.75057583
0.75062975
0.75067916
0.7506637
0.75058514
0.75051002
0.75048781
0.75057747
0.75059153
0.75065074
0.75069997
0.75068524
0.75060801
0.75052793
0.75050031
0.75058383
0.75061193
0.75067544
0.75072539
0.75071142
0.7506347
0.75055077
0.75050844
0.74657676
0.74655152
0.74655045
0.74657643
0.74654879
0.74647407
0.7464457
0.74646466
0.74658618
0.74656821
0.74657172
0.74659553
0.74656873
0.74649715
0.74646353
0.74647345
0.74659682
0.74658576
0.74659388
0.74661592
0.74658996
0.74652125
0.74648254
0.74648359
0.74660637
0.74660056
0.74661302
0.74663402
0.74660898
0.74654257
0.74649928
0.74649307
0.74661497
0.74661291
0.74662975
0.74665038
0.74662634
0.74656169
0.74651403
0.74650205
0.74662316
0.74662336
0.74664475
0.74666567
0.74664268
0.74657932
0.74652734
0.74651109
0.74663062
0.74663284
0.74665884
0.74668065
0.74665879
0.74659626
0.74654021
0.74652007
0.74663392
0.74664548
0.7466753
0.74669853
0.74667785
0.74661578
0.74655663
0.746526
0.74275625
0.74272807
0.742701
0.74269112
0.74264969
0.74258786
0.74270577
0.74258442
0.74276446
0.74274086
0.74271735
0.74270711
0.74266671
0.74260384
0.74258403
0.74259838
0.74277361
0.74275398
0.7427343
0.74272402
0.74268481
0.7426241
0.7426
0.74260473
0.74278098
0.74276434
0.74274849
0.74273871
0.74270093
0.74264211
0.74261353
0.74261078
0.74278676
0.74277218
0.74276033
0.74275159
0.74271537
0.74265798
0.74262509
0.74261695
0.74279155
0.74277787
0.74277033
0.74276318
0.74272864
0.74267231
0.7426353
0.74262329
0.74279505
0.74278214
0.74277914
0.74277408
0.74274135
0.7426858
0.74264503
0.7426296
0.74279439
0.74278845
0.74278951
0.74278689
0.74275606
0.74270116
0.74265751
0.7426338
0.73907215
0.73900704
0.73894613
0.73889657
0.73883181
0.73876899
0.73904927
0.73876904
0.73906195
0.73901588
0.73895866
0.73891004
0.73884591
0.73878237
0.73878208
0.73879223
0.73907135
0.73902546
0.73897161
0.73892427
0.73886189
0.73880273
0.73879466
0.73879595
0.73907587
0.73903176
0.73898175
0.73893635
0.73887644
0.73882021
0.73880528
0.73879953
0.73907756
0.73903487
0.73898933
0.73894654
0.73888947
0.73883498
0.7388143
0.7388038
0.73907723
0.73903516
0.73899478
0.73895526
0.73890126
0.73884787
0.73882209
0.73880835
0.73907455
0.73903321
0.73899864
0.73896299
0.73891229
0.73885964
0.73882937
0.73881284
0.73906696
0.73903213
0.73900336
0.73897196
0.73892478
0.73887268
0.73883886
0.73881576
0.73581243
0.73544059
0.73527164
0.73517342
0.73510164
0.73812024
0.73522446
0.73531634
0.7356448
0.73537954
0.73527986
0.7351837
0.73508723
0.73503733
0.7350471
0.73504272
0.73560035
0.73538125
0.73528934
0.73519533
0.7351017
0.73506479
0.73504734
0.73504592
0.73557
0.73538235
0.73529628
0.73520577
0.73511711
0.73508189
0.73505367
0.73504681
0.73554443
0.73538086
0.73530046
0.73521447
0.73513066
0.7350937
0.73506251
0.73504921
0.73551956
0.73537661
0.73530204
0.73522152
0.73514273
0.7351033
0.73507033
0.73505241
0.73549555
0.73536978
0.73530146
0.73522737
0.73515392
0.735112
0.73507714
0.7350557
0.73547313
0.73536297
0.73530126
0.73523423
0.73516628
0.73512201
0.73508563
0.73505799
0.73348323
0.73221938
0.73171872
0.73155776
0.7313347
0.7361223
0.73138043
0.73180197
0.73283759
0.7320306
0.73171537
0.73152741
0.73128489
0.73143278
0.73137034
0.7313535
0.73266296
0.73198931
0.73171706
0.73153703
0.73133836
0.73143163
0.73136878
0.73135868
0.73252093
0.7319558
0.73171583
0.73154745
0.73137684
0.73143663
0.73137236
0.73135814
0.73239476
0.73192516
0.73171151
0.7315559
0.73140509
0.73143917
0.73137977
0.73135875
0.73228228
0.73189473
0.73170445
0.73156196
0.73142867
0.73144018
0.7313862
0.73136013
0.73218451
0.73186281
0.73169473
0.73156597
0.73144873
0.73144131
0.73139125
0.73136161
0.73210401
0.73182821
0.73168429
0.73157003
0.73146703
0.73144432
0.7313974
0.73136231
0.7313876
0.72815694
0.7280665
0.72815776
0.73714529
0.73156901
0.72759911
0.72790963
0.72918505
0.72820793
0.72808736
0.72788137
0.72763163
0.72776448
0.72771536
0.72768308
0.7288069
0.72814647
0.72809277
0.72788902
0.72772235
0.72774217
0.7277007
0.72769134
0.72868497
0.7281565
0.72809229
0.72789958
0.72777095
0.7277411
0.72770385
0.72768994
0.72858505
0.72816532
0.72808854
0.72790977
0.72780443
0.7277494
0.72770995
0.72768911
0.7285015
0.72816628
0.72808226
0.72791794
0.72783109
0.72775854
0.72771619
0.72768911
0.72843056
0.72816125
0.72807335
0.72792434
0.72785222
0.72776744
0.7277222
0.72768978
0.72838355
0.72815389
0.72806434
0.72793234
0.72787036
0.72777815
0.72773013
0.72769159
0.73643668
0.7248809
0.7244378
0.7247228
0.75437253
0.72605396
0.72398695
0.7241565
0.72655942
0.72464771
0.72445385
0.72431032
0.72484435
0.72405611
0.72413888
0.72414621
0.72690589
0.72470316
0.72446741
0.72432431
0.72481149
0.72402823
0.72408735
0.72413459
0.72603294
0.72466813
0.72448133
0.7243445
0.72479594
0.72405593
0.72408983
0.72412618
0.72571878
0.72463411
0.72449116
0.72435854
0.72475488
0.72409546
0.72409759
0.72411676
0.72548106
0.72459941
0.72449601
0.72436775
0.72470393
0.72413136
0.72410763
0.72410792
0.72528495
0.72456646
0.72449481
0.72437402
0.72465231
0.72416196
0.72411739
0.72410091
0.72512385
0.72453298
0.72448907
0.72438167
0.72460137
0.72419078
0.7241275
0.72409813
0.72606652
0.72065045
0.72079203
0.72091948
0.74828629
0.72347786
0.72046759
0.72089933
0.72261178
0.72052619
0.72082806
0.72073103
0.72102793
0.72043622
0.72040285
0.72045578
0.72205324
0.72062822
0.72086786
0.72073246
0.72108294
0.72041009
0.72040182
0.72049234
0.72226078
0.72073591
0.72090018
0.72075126
0.72109918
0.72043171
0.72040324
0.72050564
0.72185013
0.7207411
0.72091866
0.72076471
0.72109353
0.72046978
0.72041349
0.72051084
0.72162428
0.72075712
0.72092838
0.72077519
0.72107765
0.72050935
0.72042915
0.72051144
0.721447
0.72077234
0.72093153
0.72078482
0.72105698
0.72054747
0.72044701
0.72050844
0.72130858
0.72078234
0.72093019
0.72079838
0.7210328
0.72058791
0.72046976
0.72050613
0.72461099
0.71796344
0.71719087
0.71714388
0.73223871
0.72099426
0.72234737
0.73585842
0.73062112
0.71729805
0.71712309
0.71716838
0.7187961
0.71646966
0.71631176
0.717772
0.71825349
0.71661704
0.71713051
0.71718464
0.71830677
0.71652718
0.71647213
0.71746231
0.71786802
0.71676974
0.71719406
0.71721306
0.71823875
0.7166567
0.71654645
0.71741442
0.7175352
0.71683022
0.71725568
0.71723754
0.71814309
0.71676734
0.71658336
0.71735827
0.7174635
0.71687842
0.71730336
0.71725881
0.71804446
0.7168649
0.71662192
0.71729605
0.71740802
0.71693513
0.71734134
0.71727864
0.71794932
0.71695085
0.7166661
0.71723011
0.71736581
0.71699945
0.71737463
0.71730393
0.71785845
0.71703584
0.71671986
0.71716082
0.72031512
0.71498249
0.71410534
0.71385158
0.71779605
0.71623566
0.71907955
0.73579183
0.72095375
0.71448819
0.71407916
0.71395249
0.71744976
0.71276667
0.71247005
0.71362165
0.71499724
0.71402615
0.71409183
0.71399409
0.71559302
0.71288073
0.71252061
0.7156187
0.71444927
0.71403981
0.7141366
0.71403279
0.71537488
0.7130694
0.71267919
0.7151629
0.71443694
0.71407096
0.71417807
0.71406687
0.71522967
0.71325302
0.71277492
0.71484366
0.71441516
0.71408937
0.71420942
0.71409568
0.71508462
0.71340833
0.71285505
0.71458711
0.71438973
0.71410319
0.71423069
0.71411997
0.71493842
0.71353964
0.71293593
0.71434814
0.7143636
0.71411924
0.71424345
0.71414146
0.71478922
0.71366382
0.71302429
0.7141077
0.71324853
0.71206815
0.71119654
0.71088967
0.72123687
0.71107562
0.71286333
0.71028123
0.71281567
0.71197458
0.71103237
0.7105488
0.73711589
0.70963147
0.7110587
0.71078507
0.71194238
0.71187825
0.7110098
0.71093955
0.71085217
0.71054016
0.70940225
0.71189222
0.711753
0.71179735
0.71103745
0.71096961
0.71062375
0.71031074
0.70953977
0.71186144
0.71176972
0.71171381
0.71106614
0.71100344
0.7107428
0.71034098
0.70955098
0.71141427
0.71175057
0.71163673
0.71108973
0.71103628
0.7108234
0.71036718
0.70956318
0.71104194
0.71171653
0.71156853
0.7111114
0.71106833
0.71088871
0.71039496
0.70959241
0.71071717
0.71167444
0.71150899
0.71113688
0.71110209
0.71093527
0.71043888
0.70962552
0.71042847
0.71035632
0.70881854
0.708378
0.70880832
0.70723036
0.70668439
0.71627262
0.71467028
0.70942815
0.70874484
0.70831096
0.708522
0.72243417
0.70721214
0.70725123
0.72224714
0.70887392
0.70870832
0.70834342
0.70883373
0.71778057
0.70598634
0.70529146
0.70789029
0.7086609
0.70869109
0.70841179
0.70891267
0.71077316
0.706206
0.70498097
0.70674974
0.70860273
0.70866435
0.70847227
0.70891628
0.71036329
0.70646805
0.70525184
0.7063312
0.7085552
0.7086425
0.70851664
0.70892729
0.70999864
0.7067112
0.70543589
0.70608816
0.70852073
0.7086251
0.7085493
0.70892307
0.70965498
0.70690631
0.70560796
0.70589657
0.70850797
0.70861484
0.7085738
0.70890539
0.70934582
0.70708184
0.70576865
0.70573587
0.70693738
0.70562389
0.70578903
0.70608611
0.69328399
0.70471137
0.70797845
0.72044942
0.7057786
0.70559768
0.70570397
0.70592518
0.6890742
0.70596296
0.70384625
0.71122146
0.70573439
0.70555566
0.70567928
0.70600683
0.72693895
0.70308171
0.702003
0.7417174
0.70563376
0.70556063
0.70575719
0.70643339
0.70939022
0.70357985
0.7008089
0.69682703
0.70554291
0.70558038
0.70587417
0.70662943
0.70794349
0.70339852
0.70142475
0.6977281
0.70547228
0.70560987
0.70597823
0.70675711
0.70764235
0.70356661
0.70183184
0.69832844
0.70541753
0.7056475
0.7060672
0.70685501
0.70735979
0.70378478
0.70212893
0.69891888
0.70539428
0.70570294
0.70616062
0.70694142
0.70709118
0.70400396
0.70240891
0.69952832
0.70152868
0.70211672
0.70387439
0.70610509
0.69319994
0.70181978
0.69888098
0.67861004
0.70119862
0.70220305
0.7043163
0.70640245
0.70304176
0.70097183
0.69933777
0.67664237
0.70162859
0.70223576
0.70344402
0.70690943
0.71233713
0.70123249
0.69833565
0.71569588
0.70167635
0.70232368
0.7036925
0.70761028
0.71129283
0.70115984
0.69811574
0.7072773
0.70172756
0.70246617
0.70402726
0.70801829
0.70524686
0.70085038
0.69842094
0.70036999
0.70177893
0.7026533
0.70436112
0.70840266
0.70520211
0.70108846
0.6987431
0.69994061
0.70184637
0.70287461
0.70468191
0.70863165
0.70514023
0.70137482
0.69891479
0.69954676
0.70196806
0.70313377
0.70498493
0.70864608
0.70501706
0.70160239
0.69910391
0.69916246
0.70055268
0.69845847
0.70460655
0.72823009
0.71101313
0.69690983
0.69519747
0.68826531
0.7002122
0.69853511
0.70418426
0.7235297
0.70735503
0.69746537
0.69413951
0.67995923
0.69944465
0.69883734
0.70446531
0.71066689
0.70705311
0.69764902
0.69406993
0.70378846
0.69933009
0.69922559
0.70413922
0.70930243
0.70581889
0.69786749
0.69419569
0.70249072
0.6992688
0.69969816
0.70428176
0.70935204
0.70248376
0.69867364
0.69475519
0.69454252
0.69925968
0.70021794
0.7046964
0.71093445
0.70212776
0.69925578
0.69561261
0.69385469
0.69930858
0.70077926
0.70533721
0.717225
0.70186504
0.69941625
0.69565966
0.69380724
0.69944577
0.70136383
0.70585474
0.71639001
0.70184768
0.69944207
0.69576812
0.69380428
0.69628275
0.68984388
0.68621851
0.87634384
0.70147035
0.70365939
0.68731715
0.68320994
0.69523783
0.68937566
0.69254816
0.8748055
0.70336593
0.70429301
0.68831594
0.67637996
0.69335846
0.68941326
0.69577592
0.87333167
0.70309855
0.70492086
0.68988025
0.67585609
0.6931575
0.68982111
0.6988923
0.87149378
0.7032657
0.70541104
0.68985378
0.70016099
0.69311756
0.69058204
0.70088432
0.86953979
0.70313687
0.70621547
0.69121779
0.69216896
0.69320858
0.69166391
0.70441158
0.86971932
0.70127129
0.70584705
0.69255854
0.68956862
0.6934886
0.69363285
0.70985656
0.8634538
0.7008342
0.7046094
0.69330758
0.68873475
0.69411207
0.69621735
0.71290511
0.80429307
0.70187361
0.70291769
0.69330359
0.68869934
0.69331039
0.68815815
0.70965017
0.86758403
0.73087744
0.68438614
0.68264187
0.67953973
0.69308789
0.68756519
0.7122169
0.86737029
0.73798638
0.68471362
0.68321402
0.67188718
0.69225643
0.68894456
0.72237832
0.86853039
0.85784193
0.68936014
0.68470216
0.67156328
0.69234116
0.69157615
0.71774451
0.86222265
0.73661743
0.69449828
0.68680078
0.67262035
0.6926321
0.69249859
0.72392728
0.86327506
0.88368691
0.69555731
0.68631628
0.69175709
0.69292938
0.69361624
0.72881333
0.87049534
0.74776962
0.69140605
0.68557313
0.67902987
0.69327483
0.69500171
0.73146586
0.86915315
0.98958344
0.69105235
0.68503306
0.67744242
0.69390529
0.69805544
0.73934269
0.85301254
0.67895625
0.69537977
0.68484772
0.67796604
0.67918226
0.63856582
0.70468092
0.97326764
0.86365737
0.77021307
0.63581111
0.67792808
0.6763527
0.64157824
0.71033997
0.96940274
0.84227243
0.78097799
0.64212448
0.67007563
0.67435131
0.64249109
0.71340099
1.0120061
0.88926053
0.79291564
0.65418855
0.66931701
0.67201884
0.68468414
0.77445423
1.0567025
0.94123541
0.85057362
0.66777761
0.66709828
0.67545968
0.80304676
0.7748282
1.0161189
0.80713345
0.8169292
0.66572053
0.695173
0.67816618
0.72446309
0.82152087
0.9573948
0.78233956
0.82061161
0.67563466
0.64679305
0.67843875
0.70609113
0.96465014
0.89969113
0.88650115
1.0502678
0.74912157
0.65572771
0.68494986
0.71927883
0.91402174
0.88583444
0.86337002
0.96044159
0.68021471
0.66414982
0.67650806
0.63477581
0.87878922
0.91400027
0.78013829
0.81546459
0.69812589
0.64150573
0.67698581
0.65917709
0.86016599
0.89663748
0.77781026
0.81037704
0.70511102
0.64392786
0.67392185
0.68721463
0.88730126
0.89149032
0.78785531
0.8173301
0.71204297
0.64589726
0.69745633
0.6756981
0.90247228
0.88439017
0.78966989
0.82042998
0.71800955
0.64770354
0.69771926
0.69859443
0.87685332
0.87018087
0.76589974
0.8371411
0.72928719
0.67020564
0.67554399
0.78982946
0.85835407
0.8521971
0.74540137
0.85514709
0.75050256
0.64846144
0.68764415
0.73417754
1.2295276
0.79371888
0.72724503
0.87939773
0.87389399
0.69050129
0.69391861
0.72487598
0.62966858
0.7570176
0.69721421
1.0202715
0.90280803
0.67362982
0.65346169
0.60817658
0.64807207
2.660483
1.1390664
0.67265199
0.58322919
0.60336865
0.65193937
0.57044729
0.56641384
2.5495157
1.0132101
0.67561311
0.59404192
0.59992284
0.64895812
0.56942133
0.54482011
2.3826405
0.93059541
0.69321521
0.5772319
0.60767473
0.66823194
0.57342471
0.52910237
2.4327193
0.87623117
0.70745084
0.54925286
0.59748985
0.63280673
0.57287248
0.54064412
2.4246743
0.87105174
0.71083169
0.65807151
0.60044519
0.63167576
0.58899775
0.58785233
2.5454196
0.96349652
0.73915676
0.64596662
0.72612447
0.63509359
0.61318089
0.67445951
3.1703419
0.99807253
0.69248253
0.65078157
0.67360236
0.64121163
0.64209275
0.71409778
3.5909948
0.99889355
0.695301
0.65183429
0.64376403
0.63436759
0.42075142
-0.73422572
45.253236
7.1106602
0.29277498
0.6224144
0.58077114
0.61505845
0.34458241
0.28359818
45.74586
8.1793339
0.32140188
0.61551458
0.58069062
0.60011817
0.34556016
1.0747533
40.221667
8.9257668
0.50397902
0.58767552
0.57624099
0.58880877
0.37972911
1.8488252
33.787966
9.2825287
0.50075309
0.57421977
0.56334141
0.58260568
0.43111883
2.3815769
25.898543
9.6625648
0.57222452
0.53829583
0.60200178
0.58700967
0.51366321
2.7164919
18.26089
5.8878988
0.87627767
0.5440855
0.58481368
0.61437542
0.62484683
3.2409228
9.3052116
1.417181
0.96342528
0.58364453
0.5753661
0.63778589
0.74312087
3.1533673
1.6753372
0.90128516
0.9440108
0.61609047
0.58288105
0.63096652
0.25211903
3.192937
58.860271
54.649822
-0.36608808
0.18822153
0.5509372
0.59646197
0.047272371
5.0805295
57.881628
55.563374
1.2508857
0.097185437
0.51730464
0.55208363
0.19718883
4.7930361
56.651737
54.744989
1.7654615
0.12315129
0.46636605
0.51452553
0.28337122
4.6306623
54.857375
53.205425
3.6515784
0.18878212
0.46034101
0.46758838
0.33442146
4.8262645
53.433396
43.045206
4.908251
0.31058688
0.3807118
0.44329367
0.41670215
8.7271289
52.093906
32.068174
5.8532218
0.45816199
0.3663617
0.44833861
0.46937696
9.6953159
43.702943
31.746791
6.8570823
0.6768401
0.38100719
0.48989137
0.81763746
14.148291
35.021193
33.134208
3.8833768
0.88639192
0.43800196
0.70762058
0.01539342
7.2891001
58.347327
55.561547
0.90856619
0.3681683
0.53483586
0.64899796
-0.19854802
9.4171796
57.823192
55.233967
2.6695136
0.23551283
0.51980716
0.64251789
0.14710657
9.6324257
56.87674
55.008799
2.6035259
0.32728902
0.48618895
0.57312313
0.39366641
9.4791342
55.087468
54.342404
2.8702013
0.41284784
0.45493938
0.3901854
0.58691558
9.626026
53.843293
54.187679
1.6232466
0.45120225
0.41207301
0.70351896
0.77986247
10.045759
54.896883
52.686106
0.046831052
0.39856789
0.36845785
0.52289877
1.2106673
13.618435
50.96772
55.592844
-0.21933383
0.29365337
0.32269575
0.64161668
1.4140991
2.9807293
39.582013
56.10334
1.7813131
0.2829371
0.30058261
0.28262505
0.91135015
0.53179355
15.928328
24.977159
-0.34963299
0.42749314
0.66186926
0.26430061
1.086401
0.47113734
17.021417
25.878314
-0.20070892
0.36581078
0.60208554
0.56751508
0.94626854
0.72754758
14.043274
25.354143
0.25456021
0.32807918
0.58584984
1.1916119
1.6044397
0.94670122
11.838373
24.547267
0.61112445
0.27655488
0.53974274
0.95674382
1.4816262
0.89671838
7.2062328
21.840447
0.76421687
0.22400645
0.49947019
1.5022655
0.47610309
0.50507629
3.7071671
18.326087
0.84605518
0.19892979
0.4835796
1.5563675
0.33737988
0.37984244
3.5677139
12.460419
0.84315953
0.19042558
0.45751465
1.3313216
0.26995867
0.5384848
3.416014
9.7635931
0.76559297
0.22422331
0.43605432
0.50898096
0.60530527
0.53723087
0.75693602
2.9436462
0.52112278
0.55576621
0.61976718
0.51293996
0.61498572
0.51132459
0.67789934
3.2170389
0.45039639
0.53910751
0.64314983
0.52065497
0.60808448
0.52747249
0.6677276
2.5842434
0.4554741
0.55033495
0.62078704
0.52724842
0.60818548
0.53089179
0.68941199
2.4062713
0.45336841
0.53289841
0.63974266
0.54476974
0.60932776
0.5258725
0.71303652
1.8560471
0.44460653
0.54966886
0.62535109
0.5789476
0.63720407
0.51358089
0.72199247
1.4575018
0.40684742
0.50308646
0.6335933
0.63416486
1.0911613
0.4833958
0.77516614
1.2047655
0.35914555
0.46686506
0.62359861
0.69040252
0.40082242
0.46903976
0.51887165
0.66189735
0.33483537
0.44448698
0.5976495
0.57680189
0.60073183
0.57915404
0.63285197
0.62749887
0.67238395
0.56694216
0.58829015
0.59916449
0.60080306
0.52329229
0.61760351
0.59026497
0.56119949
0.5675856
0.58523763
0.58402125
0.58050427
0.54484762
0.63090733
0.58795664
0.60933547
0.54719828
0.60317667
0.66999856
0.61535783
0.60777114
0.65099226
0.59111351
0.56781818
0.61571733
0.58252645
0.56140061
0.76183939
0.59016394
0.65695203
0.59437671
0.56962905
0.59592526
0.59030352
0.58313095
0.54826566
0.56398458
0.61350755
0.59839384
0.63690656
0.57310586
0.59904817
0.57928171
0.53510839
0.55685151
0.64984956
0.60248335
0.62784957
0.57969111
0.59277933
0.5760956
0.55164113
0.54884936
0.5828236
0.5750272
0.52761629
0.5837995
0.58916661
0.57735899
0.48197187
0.72342613
0.57968853
0.60427377
0.57787875
0.60422376
0.58329698
0.56606243
0.50453058
0.72594602
0.58261646
0.60387511
0.53520921
0.57521309
0.58651241
0.55931507
0.58115329
0.7559865
0.59710258
0.60841723
0.53488826
0.57903071
0.58368705
0.48830504
0.73189727
0.77321731
0.60425536
0.61170809
0.57798003
0.56386583
0.59310319
0.9138956
1.3369668
0.76918072
0.63697598
0.60508048
0.55638862
0.56501775
0.56956944
0.85350833
0.93401453
0.74965941
0.63760974
0.59667236
0.55463248
0.60407639
0.57051645
0.50617784
1.0050259
0.63270213
0.62502456
0.58688048
0.55967627
0.58201147
0.57559847
0.52864406
0.46043072
0.58297021
0.60726676
0.57152581
0.57815583
0.56835567
0.57716028
0.53423255
0.80553878
0.81757773
0.64040348
0.55800266
0.56234624
0.60827421
0.56562044
0.55461534
0.77595414
0.81311138
0.66177183
0.56374106
0.55938876
0.57120151
0.57011557
0.55726669
0.78365083
0.8195936
0.62926871
0.56346748
0.55529907
0.57315294
0.56644661
0.56839652
0.7831307
0.82198115
0.62431475
0.56557141
0.56429955
0.57862422
0.58085922
0.56713948
0.78112643
0.82749705
0.5027678
0.57077417
0.57779358
0.5735454
0.56227631
0.56826326
0.78583162
0.84576036
0.54122208
0.57423407
0.57766523
0.56834488
0.56181787
0.55200692
0.78843045
0.88551358
0.57801451
0.57628483
0.56691306
0.634602
0.56483261
0.56088665
0.78203459
0.83344966
0.58596016
0.57127282
0.56595151
0.58177372
0.56926948
0.47840407
0.7033195
0.81605762
0.74617484
0.5358948
0.5085772
0.57063012
0.55657865
0.48066241
0.70446625
0.82108671
0.6904783
0.53825501
0.49444432
0.54742614
0.55240956
0.46716022
0.75589216
0.82463532
0.78939406
0.52662301
0.5536505
0.54831209
0.55324121
0.48419765
0.79439405
0.82448484
0.80812581
0.53137536
0.54655167
0.55167836
0.55146278
0.51400135
0.78868909
0.82367471
0.78507705
0.53772457
0.5525705
0.55378707
0.55186664
0.53203442
0.78383454
0.82506123
0.81064646
0.53696759
0.5587352
0.5541642
0.55185338
0.53955511
0.78263421
0.82736273
0.79129965
0.53899017
0.56046765
0.55165385
0.55292956
0.55376489
0.75714375
0.82780027
0.67658296
0.54130658
0.55928358
0.55350793
0.55357114
0.50432411
0.51033012
0.71329718
0.63818865
0.50865186
0.51433629
0.54041729
0.54315492
0.49851969
0.51994672
0.68328827
0.60088118
0.50745411
0.4963858
0.55347286
0.53092268
0.49921821
0.52753203
0.75581362
0.67453336
0.50582151
0.48892049
0.52657884
0.53555234
0.49925442
0.53632274
0.72643811
0.71308624
0.5041611
0.54300817
0.52618314
0.53430095
0.49921065
0.54953007
0.71829562
0.70780682
0.50666031
0.50780233
0.52732941
0.53695242
0.50237656
0.564944
0.72572711
0.84458786
0.50531846
0.51132606
0.52585139
0.53422209
0.50631375
0.57440512
0.72870538
0.67175317
0.50984226
0.51845458
0.5256574
0.53435771
0.50933028
0.53525167
0.7044891
0.66522055
0.51195054
0.52106701
0.5256721
0.53371273
0.49654009
0.490938
0.50428351
0.65923541
0.50283354
0.50338023
0.5346636
0.51632092
0.49580319
0.49089133
0.50056745
0.64943155
0.50356188
0.49967299
0.56714117
0.51242155
0.49465466
0.4907901
0.50068899
0.64794693
0.50658604
0.49932548
0.50474683
0.51499053
0.49444968
0.4874951
0.5040728
0.65034863
0.50044935
0.50163695
0.50395615
0.51397906
0.49405823
0.48425398
0.52302007
0.64369788
0.4996168
0.49850231
0.50246406
0.5116778
0.49388074
0.48311545
0.52279491
1.07749
0.50001783
0.55542019
0.50162153
0.51171438
0.49379406
0.48761165
0.53589434
0.48632913
0.5050821
0.48877504
0.5038152
0.51093227
0.4935373
0.48948378
0.5379607
0.47593337
0.48696864
0.49151
0.5032353
0.51098558
0.4755566
0.47788654
0.4826827
0.56365456
0.49839723
0.48879695
0.48602428
0.48652439
0.47380705
0.4773106
0.4838137
0.56198856
0.49867639
0.48848839
0.48571851
0.4884547
0.47344464
0.47711654
0.48470468
0.55967166
0.49947103
0.49021061
0.48235667
0.48493747
0.47369877
0.4771756
0.48539876
0.55363801
0.50074581
0.49208443
0.48232112
0.48488277
0.47405002
0.47671783
0.48570301
0.55948646
0.51507092
0.49584402
0.48144191
0.4835051
0.47444555
0.47630636
0.48626388
0.63651147
0.57143111
0.52470124
0.48061852
0.48368633
0.47617079
0.47672354
0.49207025
0.8332313
0.47388992
0.52272186
0.48087483
0.48378343
0.48010443
0.47721255
0.49769361
0.48612002
0.47152833
0.4920533
0.48373459
0.48493324
0.45263168
0.46929412
0.46860085
0.51647678
0.44221772
0.46075101
0.4592971
0.45905439
0.4506902
0.46672728
0.46427076
0.51577616
0.4417713
0.45864261
0.45874538
0.46135089
0.45024835