/*--------------------------------*- C++ -*----------------------------------*\
  =========                 |
  \\      /  F ield         | OpenFOAM: The Open Source CFD Toolbox
   \\    /   O peration     | Website:  https://openfoam.org
    \\  /    A nd           | Version:  13
     \\/     M anipulation  |
\*---------------------------------------------------------------------------*/
FoamFile
{
    format      ascii;
    class       surfaceScalarField;
    location    "0.09";
    object      phi;
}
// * * * * * * * * * * * * * * * * * * * * * * * * * * * * * * * * * * * * * //

dimensions      [0 3 -1 0 0 0 0];

internalField   nonuniform List<scalar> 
150720
(
1.5723597e-11
2.6744632e-09
9.0395754e-10
1.9248749e-16
-1.6758271e-11
2.6370566e-09
9.895698e-10
-1.8152298e-11
2.6413991e-09
9.541395e-10
1.0036129e-14
2.6427254e-09
9.3325678e-10
1.8171407e-11
2.6427247e-09
9.3325848e-10
1.677361e-11
2.6413977e-09
9.5414468e-10
-1.5715318e-11
2.6370553e-09
9.8957816e-10
2.6744617e-09
9.0396656e-10
9.3267252e-16
-4.3993549e-11
4.1592368e-09
2.0193232e-09
3.1800097e-17
-1.0054144e-10
3.9976026e-09
2.1561051e-09
-6.8596283e-11
3.9882912e-09
2.081266e-09
2.194344e-14
3.9942882e-09
2.0399223e-09
6.8637632e-11
3.9942864e-09
2.0399259e-09
1.0057486e-10
3.9882869e-09
2.0812768e-09
4.4014149e-11
3.9975962e-09
2.1561231e-09
4.1592312e-09
2.0193441e-09
3.8969411e-15
-7.9169823e-11
4.8585199e-09
2.705949e-09
-2.3881121e-16
-1.4514009e-10
4.5611971e-09
2.8284377e-09
-9.4728629e-11
4.5316851e-09
2.7322567e-09
2.9069033e-14
4.5431374e-09
2.682455e-09
9.4783544e-11
4.5431346e-09
2.6824594e-09
1.4518522e-10
4.5316774e-09
2.7322698e-09
7.9197964e-11
4.5611853e-09
2.8284601e-09
4.858507e-09
2.7059767e-09
7.4259427e-15
-9.4977607e-11
5.0321609e-09
3.1133578e-09
-5.9080296e-16
-1.6010975e-10
4.6258047e-09
3.1925452e-09
-1.0347878e-10
4.5803119e-09
3.0867628e-09
3.3329499e-14
4.5962778e-09
3.0353681e-09
1.0354196e-10
4.596274e-09
3.0353726e-09
1.6016259e-10
4.5803012e-09
3.0867762e-09
9.5011926e-11
4.6257881e-09
3.1925685e-09
5.0321399e-09
3.1133884e-09
1.1257366e-14
-9.9562233e-11
4.870223e-09
3.3194805e-09
-9.7837062e-16
-1.5881595e-10
4.3949836e-09
3.3480542e-09
-1.0284646e-10
4.3413413e-09
3.2409804e-09
3.5820112e-14
4.3594515e-09
3.1919234e-09
1.0291463e-10
4.359447e-09
3.1919275e-09
1.5887397e-10
4.3413282e-09
3.2409929e-09
9.9601773e-11
4.3949634e-09
3.3480762e-09
4.8701944e-09
3.3195113e-09
1.526872e-14
-9.573539e-11
4.5097828e-09
3.380115e-09
-1.3673442e-15
-1.481784e-10
4.008572e-09
3.3627926e-09
-9.6927563e-11
3.9539665e-09
3.260062e-09
3.7234071e-14
3.9710628e-09
3.215362e-09
9.6998731e-11
3.9710578e-09
3.2153657e-09
1.4824002e-10
3.9539519e-09
3.2600731e-09
9.5779484e-11
4.0085497e-09
3.3628123e-09
4.5097484e-09
3.3801441e-09
1.9404378e-14
-8.5460433e-11
4.0477315e-09
3.3374103e-09
-1.7390682e-15
-1.3253676e-10
3.561037e-09
3.2845081e-09
-8.8081628e-11
3.5096904e-09
3.1897178e-09
3.8007692e-14
3.5226092e-09
3.1502307e-09
8.815462e-11
3.522604e-09
3.150234e-09
1.3260109e-10
3.5096748e-09
3.1897273e-09
8.5508663e-11
3.5610138e-09
3.2845251e-09
4.0476933e-09
3.3374368e-09
2.3675585e-14
-6.8673458e-11
3.2346935e-09
-2.0542075e-15
3.5375689e-09
-1.1609396e-10
3.1557193e-09
3.1085936e-09
-7.8479097e-11
3.0699471e-09
3.0579838e-09
3.8342695e-14
3.0356049e-09
3.0643423e-09
7.8553284e-11
3.0356078e-09
3.0643366e-09
1.1616084e-10
3.0699552e-09
3.0579674e-09
6.8725377e-11
3.1557335e-09
3.1085712e-09
3.2347169e-09
2.7579475e-14
3.5375297e-09
4.4656774e-11
4.4363152e-10
4.1566901e-10
2.2616149e-16
3.748616e-11
4.6352998e-10
5.3321044e-10
1.8755429e-11
4.4470455e-10
5.2816568e-10
1.9213734e-14
4.3979913e-10
5.1219387e-10
-1.8719233e-11
4.3979825e-10
5.1219867e-10
-3.7457302e-11
4.4470198e-10
5.2818076e-10
-4.4641639e-11
4.6352839e-10
5.3323411e-10
4.4363188e-10
4.1569177e-10
1.2722863e-15
8.986105e-11
1.164997e-09
1.2080966e-09
3.1248986e-17
7.1988836e-11
1.1841881e-09
1.4533193e-09
3.3720695e-11
1.1363172e-09
1.4279214e-09
4.7056476e-14
1.1255209e-09
1.3878742e-09
-3.3632057e-11
1.1255184e-09
1.3878849e-09
-7.1917397e-11
1.1363089e-09
1.4279553e-09
-8.9821348e-11
1.1841808e-09
1.4533747e-09
1.1649925e-09
1.2081546e-09
7.5748248e-15
1.0841993e-10
1.8764273e-09
1.8860991e-09
-3.3019671e-16
8.1705322e-11
1.8642934e-09
2.175047e-09
3.5798489e-11
1.7874266e-09
2.1270541e-09
6.6577153e-14
1.7723123e-09
2.0713956e-09
-3.5672642e-11
1.7723077e-09
2.0714092e-09
-8.1602052e-11
1.7874106e-09
2.1270975e-09
-1.0835913e-10
1.8642776e-09
2.1751204e-09
1.8764126e-09
1.8861812e-09
1.6304468e-14
1.1044286e-10
2.4578014e-09
2.4215416e-09
-8.1133312e-16
7.7556495e-11
2.3933693e-09
2.6963557e-09
3.1324089e-11
2.2923979e-09
2.6280239e-09
7.9922936e-14
2.2749205e-09
2.5640041e-09
-3.1172413e-11
2.274914e-09
2.5640186e-09
-7.7429847e-11
2.292374e-09
2.6280702e-09
-1.1036393e-10
2.3933435e-09
2.6964366e-09
2.4577729e-09
2.4216377e-09
2.6405346e-14
1.0315945e-10
2.8619476e-09
2.8121762e-09
-1.3378127e-15
6.7446365e-11
2.7382205e-09
3.0389161e-09
2.4496698e-11
2.6214746e-09
2.9548534e-09
8.8798511e-14
2.6032101e-09
2.8880416e-09
-2.4327453e-11
2.6032021e-09
2.8880557e-09
-6.7302678e-11
2.6214437e-09
2.9548985e-09
-1.0306491e-10
2.738185e-09
3.038997e-09
2.8619042e-09
2.8122779e-09
3.7242533e-14
9.1365685e-11
3.0854262e-09
3.0652725e-09
-1.8616002e-15
5.5602203e-11
2.9072498e-09
3.2295267e-09
1.7453447e-11
2.7843815e-09
3.1353038e-09
9.4553696e-14
2.7662564e-09
3.0696745e-09
-1.7272376e-11
2.7662472e-09
3.0696875e-09
-5.5446072e-11
2.7843452e-09
3.1353452e-09
-9.1257593e-11
2.9072061e-09
3.2296027e-09
3.0853687e-09
3.0653735e-09
4.8440461e-14
7.7845896e-11
3.1503038e-09
3.1946892e-09
-2.358919e-15
4.3845171e-11
2.9290713e-09
3.2966873e-09
1.1084612e-11
2.8092252e-09
3.1976346e-09
9.8190219e-14
2.7916751e-09
3.1357984e-09
-1.0895496e-11
2.791665e-09
3.1358099e-09
-4.3679845e-11
2.8091856e-09
3.1976713e-09
-7.7726017e-11
2.9290217e-09
3.2967556e-09
3.1502347e-09
3.1947851e-09
5.9807652e-14
6.4414553e-11
3.2102299e-09
-2.788396e-15
3.1103555e-09
3.3122603e-11
3.2626519e-09
2.8534307e-09
5.7476644e-12
3.1633947e-09
2.7431525e-09
1.0034454e-13
3.1070675e-09
2.7258599e-09
-5.5517094e-12
3.1070775e-09
2.7258474e-09
-3.2950069e-11
3.1634263e-09
2.7431129e-09
-6.4283416e-11
3.2627112e-09
2.8533774e-09
3.2103181e-09
7.0317061e-14
3.1102797e-09
3.6547307e-11
9.3307062e-11
2.8581443e-10
2.2020581e-16
3.7772007e-11
1.2328101e-10
4.0870472e-10
2.0444113e-11
1.1798009e-10
4.2751348e-10
2.7703534e-14
1.1335095e-10
4.1925933e-10
-2.0391839e-11
1.133493e-10
4.1926891e-10
-3.7731046e-11
1.1797672e-10
4.2754325e-10
-3.6526859e-11
1.2327984e-10
4.0875008e-10
9.3307706e-11
2.8585603e-10
1.174393e-15
8.410595e-11
3.6833542e-10
8.4896199e-10
2.6329007e-16
8.8851057e-11
4.3658098e-10
1.1352742e-09
4.7844986e-11
4.1617138e-10
1.1707362e-09
7.0119195e-14
4.0092724e-10
1.1480727e-09
-4.771282e-11
4.0092264e-10
1.1480945e-09
-8.8746013e-11
4.161605e-10
1.1708047e-09
-8.4049878e-11
4.3657561e-10
1.1353828e-09
3.683334e-10
8.4906921e-10
9.773918e-15
1.1516524e-10
7.6091785e-10
1.3783513e-09
2.1759591e-16
1.2034467e-10
8.5324064e-10
1.7532079e-09
6.4039452e-11
8.112508e-10
1.7882799e-09
1.0161713e-13
7.8281823e-10
1.7534424e-09
-6.3847364e-11
7.8281016e-10
1.7534707e-09
-1.2018905e-10
8.1122964e-10
1.78837e-09
-1.1507672e-10
8.5322783e-10
1.7533559e-09
7.6090852e-10
1.3785063e-09
2.3076062e-14
1.3187935e-10
1.1960828e-09
1.8544971e-09
1.5468268e-16
1.3473302e-10
1.2889306e-09
2.2578121e-09
7.0771562e-11
1.2219557e-09
2.2812805e-09
1.2437231e-13
1.1805726e-09
2.236897e-09
-7.0535599e-11
1.180561e-09
2.2369277e-09
-1.3453834e-10
1.221923e-09
2.2813796e-09
-1.3176171e-10
1.2889073e-09
2.2579806e-09
1.1960614e-09
1.8546838e-09
3.9301232e-14
1.3765394e-10
1.6131211e-09
2.2574839e-09
1.1536247e-16
1.3658791e-10
1.683694e-09
2.6452187e-09
7.0781497e-11
1.5912399e-09
2.6513757e-09
1.4032472e-13
1.538846e-09
2.6004094e-09
-7.0514233e-11
1.5388314e-09
2.6004399e-09
-1.3636352e-10
1.5911958e-09
2.651475e-09
-1.3751049e-10
1.683658e-09
2.6453931e-09
1.6130838e-09
2.2576879e-09
5.7181246e-14
1.3474959e-10
1.9701652e-09
2.5734787e-09
1.0138102e-16
1.2945013e-10
2.0007439e-09
2.9177763e-09
6.6250398e-11
1.8846285e-09
2.9051149e-09
1.5117968e-13
1.824114e-09
2.8505057e-09
-6.5961326e-11
1.824097e-09
2.8505344e-09
-1.2920337e-10
1.8845744e-09
2.9052087e-09
-1.3458341e-10
2.0006947e-09
2.917946e-09
1.9701101e-09
2.573688e-09
7.5844323e-14
1.2444028e-10
2.2450881e-09
2.7953259e-09
1.0364023e-16
1.1600573e-10
2.2222428e-09
3.083623e-09
5.8852675e-11
2.0862231e-09
3.053193e-09
1.5832014e-13
2.0210283e-09
2.9975783e-09
-5.8548781e-11
2.0210097e-09
2.9976043e-09
-1.157422e-10
2.0861612e-09
3.0532779e-09
-1.2425425e-10
2.2221815e-09
3.0837809e-09
2.245015e-09
2.7955311e-09
9.4761835e-14
1.0912944e-10
2.9239129e-09
1.1667512e-16
2.4222756e-09
9.943782e-11
3.1569236e-09
2.3376627e-09
5.0376558e-11
3.1103204e-09
2.1883586e-09
1.6268293e-13
3.0559273e-09
2.1223823e-09
-5.0062879e-11
3.0559502e-09
2.1223626e-09
-9.9161888e-11
3.1103948e-09
2.1882917e-09
-1.089245e-10
3.1570649e-09
2.3375905e-09
2.9241072e-09
1.1230925e-13
2.4221891e-09
1.7256336e-11
4.100153e-11
2.2755643e-10
1.2507295e-16
2.1893338e-11
5.6568206e-11
3.4749952e-10
1.3115967e-11
5.4029616e-11
3.8226123e-10
3.8620802e-14
4.9121668e-11
3.8321501e-10
-1.304345e-11
4.9119635e-11
3.8323135e-10
-2.1837854e-11
5.4026576e-11
3.8231108e-10
-1.7230093e-11
5.6569492e-11
3.4757282e-10
4.1004156e-11
2.2762092e-10
8.6363927e-16
4.794427e-11
1.5393299e-10
6.8808576e-10
4.9571168e-16
6.0242152e-11
2.0192063e-10
9.7762387e-10
3.5831547e-11
1.9283562e-10
1.0563408e-09
9.9096956e-14
1.7695623e-10
1.0559706e-09
-3.5645622e-11
1.769505e-10
1.0560083e-09
-6.0097305e-11
1.9282518e-10
1.0564578e-09
-4.7870168e-11
2.0192245e-10
9.7780267e-10
1.5393676e-10
6.882548e-10
1.1639581e-14
7.3319878e-11
3.313482e-10
1.1276151e-09
1.0789388e-15
9.0695736e-11
4.1419838e-10
1.5235543e-09
5.362726e-11
3.9402225e-10
1.6241618e-09
1.4516183e-13
3.6399777e-10
1.619883e-09
-5.3354072e-11
3.6398761e-10
1.6199328e-09
-9.0478353e-11
3.9400084e-10
1.6243187e-09
-7.3200489e-11
4.1419806e-10
1.5238024e-09
3.3134919e-10
1.1278634e-09
3.0038251e-14
9.3181502e-11
5.5909603e-10
1.5335659e-09
1.8481718e-15
1.1263762e-10
6.6832342e-10
1.984231e-09
6.6165757e-11
6.3225604e-10
2.0895186e-09
1.7931958e-13
5.8720536e-10
2.0796758e-09
-6.5826982e-11
5.8719069e-10
2.079731e-09
-1.1236269e-10
6.3222147e-10
2.0896947e-09
-9.3020213e-11
6.6831706e-10
1.9845191e-09
5.5908938e-10
1.5338699e-09
5.3482804e-14
1.0712741e-10
8.1470976e-10
1.89474e-09
2.7582523e-15
1.2613204e-10
9.3522023e-10
2.3593173e-09
7.3638857e-11
8.7944375e-10
2.4566812e-09
2.0387817e-13
8.2045394e-10
2.4405958e-09
-7.32521e-11
8.2043516e-10
2.4406515e-09
-1.2581228e-10
8.7939526e-10
2.4568614e-09
-1.0692822e-10
9.3520391e-10
2.3596222e-09
8.1469062e-10
1.8950785e-09
7.9943119e-14
1.1491099e-10
1.0726408e-09
2.2006329e-09
3.7383898e-15
1.3165999e-10
1.1868601e-09
2.6493874e-09
7.6550736e-11
1.1092592e-09
2.7304087e-09
2.2097053e-13
1.0390129e-09
2.7082765e-09
-7.6129802e-11
1.0389908e-09
2.7083296e-09
-1.3130581e-10
1.1091975e-09
2.7305825e-09
-1.1467801e-10
1.1868308e-09
2.6496913e-09
1.0726053e-09
2.2009874e-09
1.0787794e-13
1.163686e-10
1.3090158e-09
2.4425776e-09
4.7114517e-15
1.3021702e-10
1.3993855e-09
2.8572491e-09
7.567235e-11
1.3002534e-09
2.9167435e-09
2.3241799e-13
1.2226111e-09
2.8894201e-09
-7.522778e-11
1.2225865e-09
2.8894688e-09
-1.2983668e-10
1.3001804e-09
2.916904e-09
-1.1610595e-10
1.3993423e-09
2.8575386e-09
1.3089613e-09
2.4429329e-09
1.3624271e-13
1.1196517e-10
2.6141715e-09
5.5577295e-15
1.5067865e-09
1.2349228e-10
2.9884698e-09
1.5563122e-09
7.2030028e-11
3.0229825e-09
1.4390536e-09
2.3951359e-13
2.9918294e-09
1.3584995e-09
-7.1569704e-11
2.9918727e-09
1.3584732e-09
-1.2309233e-10
3.0231257e-09
1.4389721e-09
-1.1167448e-10
2.9887353e-09
1.5562541e-09
2.6145155e-09
1.6249495e-13
1.506716e-09
1.0714136e-11
2.1281569e-11
1.9556068e-10
4.4223091e-17
1.3873221e-11
3.3677614e-11
3.1066282e-10
8.4816041e-12
3.2389091e-11
3.5526376e-10
5.4107048e-14
2.7691293e-11
3.6395121e-10
-8.3808686e-12
2.7689e-11
3.6397733e-10
-1.3797863e-11
3.2386363e-11
3.5534171e-10
-1.0680056e-11
3.3681026e-11
3.1077399e-10
2.1285103e-11
1.9565558e-10
1.749597e-16
2.9209314e-11
8.656907e-11
5.9358799e-10
9.5246058e-16
3.8858337e-11
1.22908e-10
8.7874446e-10
2.4206606e-11
1.1735895e-10
9.8602271e-10
1.3958613e-13
1.0210888e-10
1.0056201e-09
-2.3946484e-11
1.0210217e-10
1.0056812e-09
-3.8659597e-11
1.1734879e-10
9.8620846e-10
-2.9111151e-11
1.2291592e-10
8.7901933e-10
8.6574883e-11
5.9383981e-10
1.4053623e-14
4.5283855e-11
1.9070413e-10
9.7819361e-10
2.5841272e-15
6.0403598e-11
2.537405e-10
1.377602e-09
3.7955762e-11
2.406977e-10
1.5232709e-09
2.0537343e-13
2.1192274e-10
1.5478195e-09
-3.7571554e-11
2.1191048e-10
1.5479014e-09
-6.0103156e-11
2.4067558e-10
1.5235235e-09
-4.5123657e-11
2.5375086e-10
1.377988e-09
1.9070839e-10
9.7856715e-10
3.905102e-14
5.9082514e-11
3.2576677e-10
1.339416e-09
4.7585973e-15
7.8134349e-11
4.1213332e-10
1.8067863e-09
4.9287565e-11
3.882367e-10
1.9708263e-09
2.5470504e-13
3.4510548e-10
1.995526e-09
-4.8809007e-11
3.4508737e-10
1.9956178e-09
-7.7752041e-11
3.8819939e-10
1.9711139e-09
-5.8863825e-11
4.1214184e-10
1.8072399e-09
3.2576455e-10
1.339878e-09
7.1960406e-14
7.0473883e-11
4.8192554e-10
1.6681001e-09
7.2745304e-15
9.180286e-11
5.8380726e-10
2.1663144e-09
5.7993804e-11
5.4596531e-10
2.3327616e-09
2.9056096e-13
4.8935341e-10
2.3540511e-09
-5.7445448e-11
4.893298e-10
2.354145e-09
-9.1356018e-11
5.459112e-10
2.3330601e-09
-7.0201535e-11
5.8380887e-10
2.1668007e-09
4.8191176e-10
1.6686199e-09
1.098306e-13
7.9056952e-11
6.4741448e-10
1.9560771e-09
9.9166959e-15
1.0114102e-10
7.5406045e-10
2.4570502e-09
6.3969701e-11
6.9996554e-10
2.6135798e-09
3.1573112e-13
6.3217903e-10
2.6291049e-09
-6.3371187e-11
6.3215075e-10
2.6291956e-09
-1.0064422e-10
6.9989471e-10
2.613872e-09
-7.8736382e-11
7.5405059e-10
2.4575417e-09
6.4738465e-10
1.9566279e-09
1.50281e-13
8.4321655e-11
8.0928107e-10
2.1963769e-09
1.2483219e-14
1.0619047e-10
9.0828283e-10
2.6811579e-09
6.7317982e-11
8.372212e-10
2.8183603e-09
3.3264889e-13
7.6171145e-10
2.826873e-09
-6.6684626e-11
7.6167962e-10
2.8269572e-09
-1.0565555e-10
8.3713527e-10
2.8186343e-09
-8.3958636e-11
9.0825873e-10
2.6816336e-09
8.0923152e-10
2.1969358e-09
1.9156652e-13
8.5954573e-11
2.3835564e-09
1.4642764e-14
9.5392695e-10
1.0734394e-10
2.8425929e-09
1.0327703e-09
6.8314179e-11
2.9527837e-09
9.4644978e-10
3.4308873e-13
2.9540736e-09
8.6743839e-10
-6.7657649e-11
2.9541492e-09
8.6740382e-10
-1.0678046e-10
2.953032e-09
9.4635184e-10
-8.5551826e-11
2.8430366e-09
1.0327288e-09
2.3841048e-09
2.2984127e-13
9.5386055e-10
6.2729322e-12
1.3028384e-11
1.7625938e-10
-1.1272437e-17
8.2496382e-12
2.1794617e-11
2.8689149e-10
5.0975247e-12
2.107656e-11
3.3733931e-10
7.5907431e-14
1.713066e-11
3.5184217e-10
-4.9577923e-12
1.712847e-11
3.5188256e-10
-8.1475648e-12
2.1074187e-11
3.374573e-10
-6.2287163e-12
2.1799678e-11
2.8705547e-10
1.3031596e-11
1.7639604e-10
-7.6654484e-16
1.7412095e-11
5.2219171e-11
5.3698307e-10
2.0377829e-15
2.3913395e-11
7.9240104e-11
8.1479768e-10
1.5349224e-11
7.6168994e-11
9.3949445e-10
1.9629056e-13
6.3395653e-11
9.74508e-10
-1.4986444e-11
6.3388814e-11
9.746036e-10
-2.3641984e-11
7.6159771e-11
9.3977842e-10
-1.728267e-11
7.925329e-11
8.1520641e-10
5.2223274e-11
5.3734821e-10
1.7254016e-14
2.7315483e-11
1.1543578e-10
8.8765568e-10
5.8309173e-15
3.8120776e-11
1.6388748e-10
1.2821494e-09
2.5003882e-11
1.5637223e-10
1.4561845e-09
2.8937473e-13
1.3227689e-10
1.5036528e-09
-2.4466199e-11
1.3226372e-10
1.5037821e-09
-3.7708105e-11
1.563509e-10
1.4565742e-09
-2.7102044e-11
1.6390772e-10
1.2827275e-09
1.1543663e-10
8.8820068e-10
5.1067643e-14
3.6207582e-11
1.9883346e-10
1.2197999e-09
1.0814667e-14
5.0692723e-11
2.6728758e-10
1.6889011e-09
3.3702895e-11
2.5294529e-10
1.8912431e-09
3.5951542e-13
2.1678314e-10
1.9443631e-09
-3.3031435e-11
2.1676292e-10
1.9445095e-09
-5.0165065e-11
2.5290734e-10
1.8916911e-09
-3.5913656e-11
2.6731037e-10
1.6895859e-09
1.9882598e-10
1.2204783e-09
9.6680832e-14
4.4106547e-11
2.9701732e-10
1.5257933e-09
1.6436057e-14
6.147858e-11
3.8080099e-10
2.0354289e-09
4.1228756e-11
3.5733361e-10
2.2486231e-09
4.1071024e-13
3.0976147e-10
2.3018908e-09
-4.045781e-11
3.0973427e-10
2.3020422e-09
-6.0859442e-11
3.572761e-10
2.249093e-09
-4.3737849e-11
3.8082019e-10
2.0361693e-09
2.9699635e-10
1.5265617e-09
1.4994097e-13
5.0836703e-11
4.0340285e-10
1.7988327e-09
2.2179433e-14
7.0234165e-11
4.9573028e-10
2.3227234e-09
4.7385e-11
4.6127612e-10
2.5324864e-09
4.4672922e-13
4.041084e-10
2.5816962e-09
-4.6542326e-11
4.0407493e-10
2.581844e-09
-6.9543773e-11
4.6119812e-10
2.5329514e-09
-5.0400239e-11
4.9573977e-10
2.3234786e-09
4.0336374e-10
1.7996528e-09
2.0738469e-13
5.6069916e-11
5.1063585e-10
2.0330463e-09
2.7602323e-14
7.6812937e-11
6.0344529e-10
2.5526999e-09
5.2060912e-11
5.5710372e-10
2.7472848e-09
4.7089409e-13
4.9307525e-10
2.7894962e-09
-5.1168432e-11
4.9303672e-10
2.7896347e-09
-7.6068062e-11
5.5700621e-10
2.7477259e-09
-5.5573558e-11
6.0344076e-10
2.5534381e-09
5.1057446e-10
2.0338852e-09
2.6635957e-13
5.9379909e-11
2.2235717e-09
3.1969741e-14
6.1120869e-10
8.1135221e-11
2.7284933e-09
6.9578959e-10
5.5203882e-11
2.8976942e-09
6.3812456e-10
4.85676e-13
2.9312407e-09
5.7062628e-10
-5.427844e-11
2.9313665e-09
5.7058349e-10
-8.0349541e-11
2.8980988e-09
6.3801044e-10
-5.8827678e-11
2.7291898e-09
6.9576571e-10
2.2244016e-09
3.2130024e-13
6.1112872e-10
3.965346e-12
8.0760679e-12
1.6421806e-10
-9.6743761e-17
5.0892396e-12
1.4554976e-11
2.7121262e-10
3.1052336e-12
1.4359091e-11
3.2496423e-10
1.067821e-13
1.1359457e-11
3.4348116e-10
-2.9111946e-12
1.1357835e-11
3.435427e-10
-4.9507101e-12
1.4356384e-11
3.2514043e-10
-3.9077383e-12
1.4560158e-11
2.7145233e-10
8.0766922e-12
1.6441362e-10
-2.0144463e-15
1.0882152e-11
3.2932066e-11
5.0124024e-10
4.6862868e-15
1.4933253e-11
5.3048136e-11
7.7225342e-10
9.6972274e-12
5.1839057e-11
9.0725051e-10
2.7627443e-13
4.2096594e-11
9.5319181e-10
-9.1911889e-12
4.2090246e-11
9.5333865e-10
-1.4562801e-11
5.1828759e-11
9.0767766e-10
-1.0711684e-11
5.3060966e-11
7.7285448e-10
3.2925913e-11
5.0176563e-10
2.1670607e-14
1.7021474e-11
7.338872e-11
8.3016426e-10
1.3287828e-14
2.4103425e-11
1.099104e-10
1.2182051e-09
1.6224366e-11
1.063904e-10
1.4095122e-09
4.0750285e-13
8.7970509e-11
1.4735957e-09
-1.5472622e-11
8.795672e-11
1.4737957e-09
-2.3537875e-11
1.0636615e-10
1.4101021e-09
-1.6738416e-11
1.0992957e-10
1.2190594e-09
7.3368801e-11
8.3095192e-10
6.7459279e-14
2.2615567e-11
1.271501e-10
1.1433986e-09
2.4372784e-14
3.2563083e-11
1.7964427e-10
1.6092197e-09
2.2449612e-11
1.7223147e-10
1.8355155e-09
5.0649412e-13
1.4453623e-10
1.9097405e-09
-2.1509488e-11
1.4451355e-10
1.9099687e-09
-3.1837451e-11
1.7218728e-10
1.8361979e-09
-2.2223435e-11
1.7966495e-10
1.6102365e-09
1.2711023e-10
1.1443831e-09
1.3034036e-13
2.776985e-11
1.9101154e-10
1.4341254e-09
3.6597627e-14
4.0281454e-11
2.5676153e-10
1.9458001e-09
2.8228485e-11
2.4385688e-10
2.1890507e-09
5.7874697e-13
2.0735726e-10
2.2667195e-09
-2.7148047e-11
2.0732532e-10
2.2669572e-09
-3.9427578e-11
2.4378847e-10
2.1897713e-09
-2.7275351e-11
2.5677714e-10
1.9469049e-09
1.9094679e-10
1.4352453e-09
2.0455558e-13
3.2450861e-11
2.6106459e-10
1.69628e-09
4.8787373e-14
4.7128521e-11
3.3585734e-10
2.22895e-09
3.3403386e-11
3.1607919e-10
2.4739893e-09
6.2947151e-13
2.7212022e-10
2.5497072e-09
-3.222182e-11
2.7207955e-10
2.549941e-09
-4.6174254e-11
3.1598466e-10
2.4747077e-09
-3.1862794e-11
3.3586132e-10
2.230083e-09
2.6097134e-10
1.6974803e-09
2.8520553e-13
3.6491246e-11
3.3297291e-10
1.9245868e-09
5.9986213e-14
5.2981608e-11
4.1167097e-10
2.4603959e-09
3.7837727e-11
3.8418301e-10
2.6943248e-09
6.6328346e-13
3.3479661e-10
2.7639943e-09
-3.6586209e-11
3.3474849e-10
2.7642153e-09
-5.1950405e-11
3.8406292e-10
2.6950118e-09
-3.5819938e-11
4.1165881e-10
2.4615101e-09
3.3284829e-10
1.9258198e-09
3.6843428e-13
3.9549734e-11
2.1145704e-09
6.8612846e-14
4.0235588e-10
5.7675942e-11
2.6428183e-09
4.792198e-10
4.1393454e-11
2.854097e-09
4.4406272e-10
6.8367949e-13
2.9149622e-09
3.9178493e-10
-4.0096081e-11
2.9151646e-09
3.917302e-10
-5.6587071e-11
2.8547326e-09
4.4392014e-10
-3.8800855e-11
2.6438769e-09
4.7918552e-10
2.1157959e-09
4.4637322e-13
4.0220669e-10
2.6120944e-12
5.2312131e-12
1.5637483e-10
-7.443296e-17
3.2925418e-12
9.961674e-12
2.605705e-10
1.9945196e-12
1.0144292e-11
3.1611796e-10
1.5072372e-13
8.0339448e-12
3.3729101e-10
-1.7242559e-12
8.0329862e-12
3.3738469e-10
-3.1041254e-12
1.0138768e-11
3.1638153e-10
-2.5370634e-12
9.9623848e-12
2.6092289e-10
5.2238771e-12
1.5665656e-10
-3.8790759e-15
7.1009224e-12
2.1502943e-11
4.7785665e-10
1.0935003e-14
9.6847315e-12
3.6460003e-11
7.4317128e-10
6.3517824e-12
3.6682066e-11
8.8404568e-10
3.8978884e-13
2.9815794e-11
9.3737195e-10
-5.6444655e-12
2.9809136e-11
9.3759676e-10
-9.1790614e-12
3.6662998e-11
8.8468802e-10
-6.877511e-12
3.64564e-11
7.4405892e-10
2.1466693e-11
4.786177e-10
2.7607903e-14
1.1039987e-11
4.8243772e-11
7.9235318e-10
3.0262089e-14
1.5687526e-11
7.5837804e-11
1.1741798e-09
1.0776868e-11
7.5419288e-11
1.3756857e-09
5.7475277e-13
6.2401558e-11
1.4512121e-09
-9.724617e-12
6.2384547e-11
1.4515197e-09
-1.4913536e-11
7.5377755e-11
1.3765763e-09
-1.066766e-11
7.5824721e-11
1.1754452e-09
4.8163387e-11
7.9349798e-10
8.9586821e-14
1.4621794e-11
8.4132999e-11
1.0928329e-09
5.4742356e-14
2.1331277e-11
1.2446853e-10
1.5538795e-09
1.5128413e-11
1.2238363e-10
1.794754e-09
7.1407897e-13
1.0274712e-10
1.8838093e-09
-1.3811721e-11
1.0271716e-10
1.8841619e-09
-2.0336012e-11
1.2231172e-10
1.7957883e-09
-1.4104283e-11
1.2444004e-10
1.5553894e-09
8.3998986e-11
1.0942673e-09
1.7588387e-13
1.7962515e-11
1.2722052e-10
1.372994e-09
8.1305469e-14
2.6648139e-11
1.7872936e-10
1.8828536e-09
1.9329918e-11
1.738306e-10
2.1449219e-09
8.1545219e-13
1.4786455e-10
2.2401166e-09
-1.7816521e-11
1.4782072e-10
2.2404856e-09
-2.5474825e-11
1.7372302e-10
2.1460184e-09
-1.7307765e-11
1.7867976e-10
1.8844981e-09
1.2702866e-10
1.3746292e-09
2.7858731e-13
2.1087538e-11
1.7507276e-10
1.6272328e-09
1.0735285e-13
3.1590897e-11
2.3506752e-10
2.1621084e-09
2.3283591e-11
2.2626761e-10
2.4298596e-09
8.8618631e-13
1.9488927e-10
2.5250798e-09
-2.1628943e-11
1.9483206e-10
2.5254448e-09
-3.0277763e-11
2.2612246e-10
2.430957e-09
-2.0306418e-11
2.3499248e-10
2.1637989e-09
1.7482302e-10
1.6289886e-09
3.9087782e-13
2.3921924e-11
2.2496251e-10
1.8506443e-09
1.3083091e-13
3.6093872e-11
2.9003762e-10
2.3932538e-09
2.6887607e-11
2.7653945e-10
2.6532593e-09
9.3278405e-13
2.4116748e-10
2.7436709e-09
-2.5136018e-11
2.4109857e-10
2.7440175e-09
-3.4673445e-11
2.7635821e-10
2.6543135e-09
-2.3027549e-11
2.8993607e-10
2.3949206e-09
2.2465709e-10
1.8524509e-09
5.0729228e-13
2.6221513e-11
2.0390073e-09
1.4835675e-13
2.7415575e-10
4.0028764e-11
2.578716e-09
3.4033265e-10
3.0017791e-11
2.8187721e-09
3.2187532e-10
9.6026502e-13
2.9008806e-09
2.8430665e-10
-2.8203641e-11
2.9011997e-09
2.8422733e-10
-3.8527793e-11
2.8197523e-09
3.2166262e-10
-2.522141e-11
2.5803045e-09
3.4020204e-10
2.0408056e-09
6.1685676e-13
2.7380915e-10
1.842783e-12
3.5755616e-12
1.509554e-10
1.0777693e-15
2.3338931e-12
7.0823125e-12
2.5299708e-10
1.443865e-12
7.5258743e-12
3.0948211e-10
2.140258e-13
6.1342106e-12
3.3238664e-10
-1.0649127e-12
6.1328204e-12
3.3253081e-10
-2.0769699e-12
7.511387e-12
3.098822e-10
-1.7462115e-12
7.0665942e-12
2.5352553e-10
3.5462163e-12
1.513711e-10
-6.9764707e-15
4.9477124e-12
1.4775164e-11
4.616822e-10
2.7133508e-14
6.768736e-12
2.6031282e-11
7.2240128e-10
4.5446626e-12
2.7226753e-11
8.6656888e-10
5.5290006e-13
2.2694445e-11
9.2480348e-10
-3.5510722e-12
2.2682831e-11
9.2515072e-10
-6.0780366e-12
2.7179392e-11
8.6754698e-10
-4.6592567e-12
2.5971092e-11
7.2373564e-10
1.4660427e-11
4.6280894e-10
3.5288901e-14
7.6168968e-12
3.3285552e-11
7.661547e-10
7.1198859e-14
1.0874095e-11
5.4348145e-11
1.1426057e-09
7.6665553e-12
5.6048285e-11
1.3500717e-09
8.1449561e-13
4.743081e-11
1.4333278e-09
-6.1877887e-12
4.7400678e-11
1.4338041e-09
-9.815549e-12
5.5952954e-11
1.3514305e-09
-7.1356979e-12
5.4226547e-11
1.1445099e-09
3.3051399e-11
7.6785241e-10
1.1889673e-13
1.000003e-11
5.8292745e-11
1.0577e-09
1.2564645e-13
1.4714028e-11
8.9548347e-11
1.5139653e-09
1.0739125e-11
9.1126022e-11
1.7636512e-09
1.0108321e-12
7.8075736e-11
1.8628926e-09
-8.889203e-12
7.8022695e-11
1.8634399e-09
-1.3351492e-11
9.0972045e-11
1.7652315e-09
-9.3305095e-12
8.9357001e-11
1.516238e-09
5.7922694e-11
1.0598288e-09
2.3672813e-13
1.2202883e-11
8.8553824e-11
1.3303464e-09
1.8367268e-13
1.8352918e-11
1.2914347e-10
1.8371085e-09
1.3738935e-11
1.297721e-10
2.1108898e-09
1.1527967e-12
1.1244037e-10
2.2183381e-09
-1.1614105e-11
1.1236311e-10
2.2189121e-09
-1.6745432e-11
1.2955448e-10
2.1125673e-09
-1.1354479e-11
1.2888106e-10
1.8395831e-09
8.804647e-11
1.332773e-09
3.7800092e-13
1.4271819e-11
1.2248727e-10
1.5787879e-09
2.3964699e-13
2.1795745e-11
1.7068328e-10
2.1130447e-09
1.6621334e-11
1.6948241e-10
2.3953237e-09
1.2508084e-12
1.4844732e-10
2.5044434e-09
-1.4300603e-11
1.4834704e-10
2.5050123e-09
-1.9995837e-11
1.6920206e-10
2.3970047e-09
-1.3257567e-11
1.7035448e-10
2.1155872e-09
1.2185254e-10
1.5813917e-09
5.3333059e-13
1.6180939e-11
1.582944e-10
1.798367e-09
2.8920992e-13
2.5024831e-11
2.1177271e-10
2.3433205e-09
1.9329345e-11
2.0798314e-10
2.620454e-09
1.3141609e-12
1.8417589e-10
2.7259575e-09
-1.6875971e-11
1.8405572e-10
2.726499e-09
-2.3077434e-11
2.076461e-10
2.6220709e-09
-1.5016792e-11
2.1138844e-10
2.345826e-09
1.5754851e-10
1.8010431e-09
6.9509321e-13
1.7760638e-11
1.9850464e-09
3.2519793e-13
1.941694e-10
2.7963653e-11
2.5302201e-09
2.5006558e-10
2.1777564e-11
2.7896897e-09
2.4325167e-10
1.3501847e-12
2.8876017e-09
2.1788209e-10
-1.9240735e-11
2.8881014e-09
2.1774502e-10
-2.5905461e-11
2.7911954e-09
2.4286771e-10
-1.6455637e-11
2.5326073e-09
2.4963585e-10
1.9877062e-09
8.4809821e-13
1.9334415e-10
1.39654e-12
2.6347349e-12
1.4691843e-10
5.6972791e-15
1.8476147e-12
5.2696012e-12
2.472764e-10
1.2241665e-12
5.850293e-12
3.0425526e-10
3.0776744e-13
4.983589e-12
3.2831945e-10
-6.8440249e-13
4.9771336e-12
3.2854584e-10
-1.4926982e-12
5.8113087e-12
3.0487918e-10
-1.2720612e-12
5.2063186e-12
2.4809858e-10
2.5511247e-12
1.4755967e-10
-1.1752195e-14
3.7081879e-12
1.0865724e-11
4.4967503e-10
6.7989414e-14
5.2212745e-12
1.9442432e-11
7.0671536e-10
3.6980526e-12
2.1167313e-11
8.5277508e-10
7.939165e-13
1.8350856e-11
9.1434035e-10
-2.2839377e-12
1.8318931e-11
9.1488677e-10
-4.2684175e-12
2.103994e-11
8.5430282e-10
-3.3392259e-12
1.9219973e-11
7.0879279e-10
1.0552312e-11
4.5142449e-10
4.4036899e-14
5.6458945e-12
2.4456257e-11
7.4674914e-10
1.6912968e-13
8.2410002e-12
4.0709539e-11
1.1187435e-09
6.0812742e-12
4.3605913e-11
1.3297928e-09
1.1677591e-12
3.824026e-11
1.4183519e-09
-3.9788505e-12
3.8167706e-11
1.4191019e-09
-6.7823096e-12
4.3357919e-11
1.3319159e-09
-5.0340143e-12
4.0282288e-11
1.1216993e-09
2.3831792e-11
7.4938342e-10
1.5549348e-13
7.3220163e-12
4.2831691e-11
1.0317119e-09
2.9060016e-13
1.0984522e-11
6.7265848e-11
1.4837464e-09
8.352423e-12
7.0979902e-11
1.7389093e-09
1.4465703e-12
6.2819616e-11
1.8452191e-09
-5.7262398e-12
6.2699572e-11
1.8460808e-09
-9.1093904e-12
7.0596775e-11
1.7413757e-09
-6.4745306e-12
6.662256e-11
1.4872628e-09
4.1863575e-11
1.0350077e-09
3.1472506e-13
8.826558e-12
6.512442e-11
1.2988096e-09
4.1745379e-13
1.3530091e-11
9.730274e-11
1.802368e-09
1.0526106e-11
1.0124296e-10
2.0836307e-09
1.6460748e-12
9.0350057e-11
2.1996877e-09
-7.5154163e-12
9.0182033e-11
2.2005912e-09
-1.1320994e-11
1.0072535e-10
2.0862443e-09
-7.7554384e-12
9.6457244e-11
1.8061828e-09
6.382098e-11
1.3025529e-09
5.0720104e-13
1.0210479e-11
9.0233052e-11
1.5429311e-09
5.3766967e-13
1.5913412e-11
1.2903464e-10
2.0756099e-09
1.2598632e-11
1.3248851e-10
2.3673929e-09
1.7814404e-12
1.1920002e-10
2.4864107e-09
-9.3178675e-12
1.1898833e-10
2.4873053e-09
-1.3443622e-11
1.3184917e-10
2.3700066e-09
-8.9311584e-12
1.2801831e-10
2.0795137e-09
8.8632533e-11
1.5469287e-09
7.2021643e-13
1.1472998e-11
1.1690265e-10
1.7595822e-09
6.4217053e-13
1.8150556e-11
1.6070445e-10
2.3049732e-09
1.4552455e-11
1.6297646e-10
2.5935642e-09
1.8662524e-12
1.4786872e-10
2.709975e-09
-1.1093217e-11
1.47621e-10
2.7108258e-09
-1.5482663e-11
1.6223671e-10
2.5960728e-09
-1.0004056e-11
1.5956167e-10
2.3088041e-09
1.1505997e-10
1.7636683e-09
9.4333561e-13
1.249584e-11
1.9448531e-09
7.1609137e-13
1.4388403e-10
2.0208222e-11
2.4926512e-09
1.9056101e-10
1.6341248e-11
2.7653902e-09
1.9114293e-10
1.9114527e-12
2.8749092e-09
1.7499105e-10
-1.2774662e-11
2.8756934e-09
1.7471507e-10
-1.7392383e-11
2.7677214e-09
1.9032844e-10
-1.0846436e-11
2.4962859e-09
1.893371e-10
1.9488884e-09
1.1557566e-12
1.4187563e-10
1.1264682e-12
2.200236e-12
1.4356414e-10
2.7579106e-14
1.6297066e-12
4.1652865e-12
2.4260787e-10
1.2088683e-12
4.7526961e-12
2.999234e-10
4.5004406e-13
4.228914e-12
3.2484936e-10
-4.2415021e-13
4.2055183e-12
3.2521452e-10
-1.124018e-12
4.6463853e-12
3.0093266e-10
-9.6557512e-13
3.946128e-12
2.43994e-10
1.9431153e-12
1.446679e-10
-1.6920868e-14
2.9612194e-12
8.8903834e-12
4.3982097e-10
2.0268421e-13
4.4727775e-12
1.5381262e-11
6.9398782e-10
3.4656976e-12
1.7182138e-11
8.4135271e-10
1.1588344e-12
1.5494413e-11
9.0538171e-10
-1.4155109e-12
1.5401164e-11
9.0626547e-10
-3.1228246e-12
1.6831805e-11
8.4382472e-10
-2.4897456e-12
1.467827e-11
6.9742757e-10
8.0398905e-12
4.4277512e-10
6.2840056e-14
4.454628e-12
1.9760339e-11
7.3097092e-10
4.5362989e-13
6.9096406e-12
3.2207824e-11
1.099462e-09
5.4998029e-12
3.5390977e-11
1.3129938e-09
1.7008884e-12
3.2179683e-11
1.4054655e-09
-2.4613091e-12
3.1987389e-11
1.4066779e-09
-4.8601339e-12
3.4735508e-11
1.3164111e-09
-3.6928557e-12
3.0946304e-11
1.104264e-09
1.812276e-11
7.3539366e-10
2.1403364e-13
5.6913919e-12
3.4287742e-11
1.0107551e-09
7.380738e-13
9.0205105e-12
5.3219099e-11
1.459406e-09
7.3238806e-12
5.7617745e-11
1.7183792e-09
2.1014741e-12
5.2721552e-11
1.8298997e-09
-3.5410064e-12
5.2421422e-11
1.8312893e-09