/*--------------------------------*- C++ -*----------------------------------*\
  =========                 |
  \\      /  F ield         | OpenFOAM: The Open Source CFD Toolbox
   \\    /   O peration     | Website:  https://openfoam.org
    \\  /    A nd           | Version:  13
     \\/     M anipulation  |
\*---------------------------------------------------------------------------*/
FoamFile
{
    format      ascii;
    class       volScalarField;
    location    "0.09";
    object      rho;
}
// * * * * * * * * * * * * * * * * * * * * * * * * * * * * * * * * * * * * * //

dimensions      [1 -3 0 0 0 0 0];

internalField   nonuniform List<scalar> 
51200
(
1
1
1
1
1
1
1
1
1
1
1
1
1
1
1
1
1
1
1
1
1
1
1
1
1
1
1
1
1
1
1
1
1
1
1
1
1
1
1
1
1
1
1
1
1
1
1
1
1
1
1
1
1
1
1
1
1
1
1
1
1
1
1
1
1
1
1
1
1
1
1
1
1
1
1
1
1
1
1
1
1
1
1
1
1
1
1
1
1
1
1
1
1
1
1
1
1
1
1
1
1
1
1
1
1
1
1
1
1
1
1
1
1
1
1
1
1
1
1
1
1
1
1
1
1
1
1
1
1
1
1
1
1
1
1
1
1
1
1
1
1
1
1
1
1
1
1
1
1
1
1
1
1
1
1
1
1
1
1
1
1
1
1
1
1
1
1
1
1
1
1
1
1
1
1
1
1
1
1
1
1
1
1
1
1
1
1
1
1
1
1
1
1
1
1
1
1
1
1
1
1
1
1
1
1
1
1
1
1
1
1
1
1
1
1
1
1
1
1
1
1
1
1
1
1
1
1
1
1
1
1
1
1
1
1
1
1
1
1
1
1
1
1
1
1
1
1
1
1
1
1
1
1
1
1
1
1
1
1
1
1
1
1
1
1
1
1
1
1
1
1
1
1
1
1
1
1
1
1
1
1
1
1
1
1
1
1
1
1
1
1
1
1
1
1
1
1
1
1
1
1
1
1
1
1
1
1
1
1
1
1
1
1
1
1
1
1
1
1
1
1
1
1
1
1
1
1
1
1
1
1
1
1
1
1
1
1
1
1
1
1
1
1
1
1
1
1
1
1
1
1
1
1
1
1
1
1
1
1
1
1
1
1
1
1
1
1
1
1
1
1
1
1
1
1
1
1
1
1
1
1
1
1
1
1
1
1
1
1
1
1
1
1
1
1
1
1
1
1
1
1
1
1
1
1
1
1
1
1
1
1
1
1
1
1
1
1
1
1
1
1
1
1
1
1
1
1
1
1
1
1
1
1
1
1
1
1
1
1
1
1
1
1
1
1
1
1
1
1
1
1
1
1
1
1
1
1
1
1
1
1
1
1
1
1
1
1
1
1
1
1
1
1
1
1
1
1
1
1
1
1
1
1
1
1
1
1
1
1
1
1
1
1
1
1
1
1
1
1
1
1
1
1
1
1
1
1
1
1
1
1
1
1
1
1
1
1
1
1
1
1
1
1
1
1
1
1
1
1
1
1
1
1
1
1
1
1
1
1
1
1
1
1
1
1
1
1
1
1
1
1
1
1
1
1
1
1
1
1
1
1
1
1
1
1
1
1
1
1
1
1
1
1
1
1
1
1
1
1
1
1
1
1
1
1
1
1
1
1
1
1
1
1
1
1
1
1
1
1
1
1
1
1
1
1
1
1
1
1
1
1
1
1
1
1
1
1
1
1
1
1
1
1
1
1
1
1
1
1
1
1
1
1
1
1
1
1
1
1
1
1
1
1
1
1
1.0000002
1
1.0000007
1
1
1
1
1
1
1
1
1
1
1
1
1
1
1
1
1
1
1
1
1
1
1
1
1
1
1
1
1
1
1
1
1
1
1
1
1
1
1
1
1
1
1
1
1
1
1
1
1
1
1
1
1
1
1
1
1
1
1
1
1
1
1.000191
1.0000021
1
1
1
1
1
1
1.0000004
1
1
1
1
1
1
1
1
1
1
1
1
1
1
1
1
1
1
1
1
1
1
1
1
1
1
1
1
1
1
1
1
1
1
1
1
1
1
1
1
1
1
1
1
1
1
1
1
1
1.0000477
1
1
1
1.0000027
1
1.0003774
1.0000001
1.0000003
1
1
1
1
1
1.0000022
1.0000001
1
1
1
1
1
1
1
1
1
1
1
1
1
1
1
1
1
1
1
1
1
1
1
1
1
1
1
1
1
1
1
1
1
1
1
1
1
1
1
1
1
1
1
1
1
1
1
1
1.0005127
1.0000941
1
1
1.0000111
1.0041713
1.0003515
1.0004592
1
1.0000002
1
1
1.0000001
1.0000162
1.0000014
1.0000009
1
1
1
1
1
1
1
1
1
1
1
1
1
1
1
1
1
1
1
1
1
1
1
1
1
1
1
1
1
1
1
1
1
1
1
1
1
1
1
1
1
1
1
1
1
1
1
1
1.0008169
1.0002578
1.0000002
1.0000678
1
1.0065442
1.0001551
1.000729
1.0000003
1.0000013
1
1
1
1.0002115
1.0000026
1.0000066
1
1
1
1
1
1
1
1
1
1
1
1
1
1
1
1
1
1
1
1
1
1
1
1
1
1
1
1
1
1
1
1
1
1
1
1
1
1
1
1
1
1
1
1
1
1
1
1
1.0065369
1.000097
1
1.0003762
1.012906
1.0056163
1.0000007
1.0004169
1
1.0000024
1.0000001
1.0000009
1
1.0001943
1.0000434
1.0000176
1
1
1
1
1
1
1
1.0000002
1
1
1
1
1
1
1
1
1
1
1
1
1
1
1
1
1
1
1
1
1
1
1
1
1
1
1
1
1
1
1
1
1
1
1
1
1
1
1
1
1.0204762
1.0000747
1
1.0005182
1.0413581
1.0033967
1.0000007
1.0000007
1.0019779
1.0000145
1
1.0000136
1.0014449
1.0002314
1.0001184
1.0000185
1.0000365
1
1
1
1
1
1
1.0000005
1.0000133
1
1
1
1
1
1
1
1.0000029
1.0000001
1
1
1
1
1
1
1
1
1
1
1
1
1
1
1
1
1
1
1
1
1
1
1
1
1
1
1
1
1
1
1.0159125
1.0007094
1
1.0003334
1.0417529
1.004805
1.0003919
1.0007818
1.0110705
1.0000608
1
1.0000178
1.0037992
1.0003279
1.0000666
1.0000002
1.0034208
1.0000104
1
1.0000001
1
1
1
1.0000005
1.0000559
1
1
1
1
1
1
1
1.0000026
1.0000001
1
1
1
1
1
1
1
1
1
1
1
1
1
1
1
1
1
1
1
1
1
1
1
1
1
1
1
1
1
1
1.0043907
1.0013988
1.0000019
1.0000426
1.0417529
1.0071785
1.0087019
1.0272375
1.0124234
1
1
1
1.0247546
1.0005662
1
1
1.0025246
1.0000053
1
1.000001
1.000448
1
1
1
1
1
1
1
1
1
1
1
1.0000019
1.0000001
1
1
1
1
1
1
1
1
1
1
1
1
1
1
1
1
1
1
1
1
1
1
1
1
1
1
1
1
1
1
1.0017053
1.0010076
1.0000003
1
1.0417521
1.0071018
1.0112165
1.0577341
1.0063565
1
1
1
1.0417493
1.0010985
1
1.0144217
1.000687
1
1
1.0000004
1.0056126
1.0000909
1
1
1
1
1
1.0000001
1
1
1
1
1.0000009
1.0000001
1
1
1
1
1
1
1
1
1
1
1
1
1
1
1
1
1
1
1
1
1
1
1
1
1
1
1
1
1
1
1.0020414
1.0001776
1.0000003
1.0003149
1.0249069
1.0051268
1.0146404
1.0577345
1.0005479
1.0000235
1.0000014
1
1.0417306
1.0012855
1.0000001
1.0577341
1.0006053
1
1
1
1.0240063
1.0008412
1.0000001
1.0238756
1.0000003
1
1
1
1.0006096
1.0000009
1
1
1.0000002
1
1
1
1
1
1
1
1
1
1
1
1
1
1
1
1
1
1
1
1
1
1
1
1
1
1
1
1
1
1
1
1.0025499
1.0000015
1.0000042
1.0002241
1.0030797
1.0014068
1.0232629
1.0448035
1.0000347
1.0000347
1.0000048
1
1.0357856
1.0030013
1.0001867
1.0555062
1.0004992
1.0000003
1
1
1.0329039
1.0011891
1.0000227
1.0404127
1.0000006
1
1
1
1.0033382
1.0001521
1
1.0023412
1
1
1
1
1
1.0000032
1
1
1
1
1
1
1
1
1
1
1
1
1
1
1
1
1
1
1
1
1
1
1
1
1
1
1.002641
1.0000001
1.0000033
1.0000138
1.0000138
1.0004868
1.0143538
1.0070995
1.0000876
1.0000329
1.0000016
1.0000008
1.0052517
1.0035809
1.0027183
1.0181764
1.0001009
1
1
1
1.0328913
1.0012516
1.0017174
1.0403967
1.0000003
1
1
1
1.0209229
1.0008709
1.0000586
1.0055297
1
1
1
1
1.0026313
1.0001969
1.0000026
1
1
1
1
1
1
1.0000008
1
1
1
1
1
1
1
1
1
1
1
1
1
1
1
1
1
1
1.0016511
1.0000001
1.0000461
1
1.0198982
1.0003697
1.0006124
1.0031476
1.000118
1.0000651
1.0006123
1
1.0050496
1.0029219
1.004078
1.0053656
1.0000005
1.000016
1
1
1.0328623
1.003469
1.0003811
1.0403473
1.0000005
1
1
1
1.0323246
1.0032487
1.0010354
1.0356006
1
1
1
1
1.0063371
1.000606
1.0000497
1.0061762
1
1
1
1
1
1
1
1
1
1
1
1
1
1
1
1
1
1
1
1
1
1
1
1
1.0008529
1.0000001
1.0000001
1.1934815
1.0395613
1.0001825
1.000341
1.0044331
1.0015469
1.0000051
1.0000001
1.1836926
1.0321619
1.0004382
1.0027884
1.0182311
1.0000008
1.000008
1.0011888
1.1332521
1.0298415
1.0032786
1.0000361
1.0402845
1.0000009
1.0000071
1.0001847
1.0924672
1.0252514
1.0029799
1.0010407
1.0402375
1
1.0000004
1.0000371
1.0593348
1.0073473
1.0001476
1.0002759
1.0197307
1.0000002
1.0000031
1.000011
1.0264681
1.0032706
1
1.0000108
1.0000783
1.0000006
1.0000021
1
1
1.0000993
1.0000478
1
1
1.0000001
1
1
1
1
1.0000001
1
1
1.0003011
1.0000045
1.0000001
1.5639776
1.0201633
1.0007267
1.000266
1.0022859
1.0017522
1
1.0219914
1.5644842
1.033113
1.0003779
1.0003772
1.0137497
1
1
1.0254141
1.5652738
1.0316961
1.0011178
1.000036
1.0242779
1.0000006
1
1.0292045
1.5655408
1.0288019
1.0019074
1.0000361
1.0401999
1
1
1.0252125
1.5644027
1.0217809
1.0000059
1.0004656
1.0360555
1.0000008
1
1.0178534
1.5649439
1.0077828
1.0000018
1.0001883
1.0106225
1.0000021
1.0000018
1.0145056
1.5638262
1.0000561
1.000056
1.0001064
1.000083
1.0000012
1
1.0256317
1.4363672
1.0090092
1
1.0000058
1
1.0000305
1.0000026
1.0523386
1.5644842
1.1813295
1.0050019
1.0003052
1.0010609
1.0006254
1.0000002
1.0915912
1.5652971
1.1710057
1.0030841
1.0001284
1.0150096
1
1
1.1200992
1.5656633
1.2969728
1.0010374
1.000036
1.0131148
1
1
1.1069043
1.565558
1.1834226
1.0141548
1.000036
1.0298311
1
1
1.1027319
1.5656455
1.0518674
1.0088947
1.0000776
1.0404078
1
1.0000001
1.1332159
1.5655577
1.2025704
1.0060696
1.0000014
1.0334679
1.0000016
1.0000009
1.1201525
1.5649439
1.399376
1.0000493
1.0000005
1.0090386
1.0000014
1.0000009
1.1480449
1.5641048
1.1373161
1.0000004
1.0000001
1
1
1.0147309
1.2436056
1.1991252
1.2023876
1.036166
1.0002565
1.0002262
1
1.0320023
1.2459145
1.1825493
1.1604155
1.050469
1.0006763
1.0088957
1
1.056835
1.2459491
1.0777557
1.0400448
1.0586823
1.0115329
1.0030568
1
1.0155544
1.1890259
1.0458205
1.0109516
1.010832
1.0011897
1.022905
1.0012003
1.1673377
1.2013262
1.0739456
1.108979
1.0392908
1.0000963
1.0397014
1
1.1336447
1.456895
1.1664419
1.3091021
1.1836535
1.0469939
1.0081574
1
1.0344736
1.5575663
1.3236592
1.4331556
1.4331556
1.1199062
1.0000026
1.0000001
1.0650286
1.5574954
1.5545513
1.4291932
1.3884316
1.0631617
1.0000021
1.0000001
1.0348548
1.1617785
1.0342716
1.0340469
1.0282447
1.0127756
1.0004762
1.0003362
1.0641336
1.1233231
1.0608055
1.0398037
1.0170417
1.0009439
1.0015354
1.0100617
1.0328744
1.0033206
1.0444535
1.0230565
1.0164037
1.0039997
1.0039839
1.039149
1.0429177
1.0061233
1.0088985
1.0130769
1.0263922
1.0103938
1.020615
1.0476579
1.1518582
1.0325846
1.0686022
1.0708131
1.0382302
1.0763933
1.0752689
1.0236648
1.2137044
1.2433664
1.1061132
1.0873072
1.0765206
1.1085453
1.0625911
1.0041239
1.1940043
1.5027183
1.2722706
1.1047923
1.2257024
1.2763182
1.1076769
1.0060429
1.1370901
1.0022087
1.4442892
1.2628489
1.317534
1.2773854
1.0961255
1.0002198
1.0096063
1.0036185
17.296532
5.2948226
1.0033403
1.0134528
1.0033729
1.0007749
1.0490404
1.0031092
17.953833
4.8883847
1.0030656
1.0029727
1.0052589
1.0136744
1.0596191
1.0031493
16.379655
4.3619844
1.0564471
1.0167687
1.0362946
1.0343908
1.0598107
1.0031092
15.482395
3.8669664
1.1213251
1.1709019
1.0283961
1.0110251
1.0598991
1.0056045
13.737716
3.4994914
1.1582525
1.2635114
1.0867695
1.0038673
1.0217508
1.2130403
10.037904
3.1551351
1.2704987
1.264447
1.223358
1.0001393
1.0237057
1.3620369
9.1371515
2.9605487
1.2104634
1.0989793
1.2010613
1.0003926
1.0148054
1.0073972
8.7284215
2.799479
1.0923655
1.072931
1.1262158
1.0001927
1.0001432
1.572113
149.65659
38.924651
1.0035247
1.0160271
1.0035113
1.0008085
1.0001173
4.3502794
153.68414
42.699806
1.0034467
1.0257284
1.0092586
1.0060269
1.0001106
4.7705216
148.93485
41.695849
2.0157167
1.0327983
1.0407275
1.0045627
1.0000631
5.6233179
143.68868
42.099852
2.1136118
1.1060156
1.0955319
1.0000174
1.0000425
8.996754
129.3568
41.995009
1.5485701
1.0803771
1.1405876
1.0000123
1.0001098
9.0745276
116.02643
34.647718
1.3538979
1.0471192
1.141429
1.0000317
1.0001557
10.962118
96.132526
20.237545
1.7133447
1.0171141
1.0503003
1.000038
1.2918137
18.622228
33.7574
8.9679599
2.2550588
1.0049619
1.022383
1.004128
1.0001173
22.66988
190.15925
188.18827
3.5247642
1.0005508
1.0031945
1.0001173
1.0000974
32.901
190.15925
190.15925
9.5985918
1.0005355
1.00149
1.0007835
1.0000629
33.110527
190.15925
189.45936
8.9547631
1.0003592
1.0229283
1.0000316
1.0000399
34.931451
190.15918
188.81543
7.8269564
1.0002828
1.0530137
1.0000161
1.0000328
31.94606
190.15465
177.60222
14.195017
1.0008435
1.0081646
1.0000144
1.0008752
28.32679
189.88989
137.0285
17.805222
1.0054151
1.0036707
1.0000005
1.0012895
39.218858
178.34232
109.70173
21.708334
1.0033001
1.0023363
1.0000031
1.0349673
50.592991
155.22055
112.23436
16.624994
1.0045096
1.0010816
1.0881662
1.0001432
34.983378
190.15925
190.15925
8.8537146
1.0005021
1.005483
1.1274642
1.0001188
45.156031
190.15925
190.15924
18.731956
1.0003592
1.0134972
1.0214635
1.0001162
46.217196
190.15924
190.15916
18.559328
1.0002655
1.0053809
1.0285549
1.0000629
47.282254
190.15916
190.1564
22.10241
1.0001902
1.0001219
1.4532249
1.0000399
48.44539
190.15648
190.10512
20.206315
1.0001574
1.0000302
1.9867088
1.1666732
41.08082
190.09319
189.91857
16.658801
1.0003669
1.0003286
1.7688451
1.1228903
53.145892
183.22447
189.6022
7.2905188
1.0015568
1.0050539
1.5307729
1.4304219
24.934221
161.01131
185.70899
1.7944723
1.0046712
1.0222982
1.7181525
2.1944569
1.0433845
72.343222
95.454927
1.0010277
1.092237
1.1280282
1.7247698
2.3130229
1.0429283
77.020837
99.227016
1.0014102
1.0820367
1.0783846
1.4915365
2.2499155
1.0425221
70.948737
97.172513
1.0018662
1.0092203
1.0037474
1.1286085
1.0659962
1.0429814
68.171279
95.445947
1.0022597
1.0022402
1.0234867
2.3771764
1.1308638
1.0450022
58.071212
90.069808
1.002294
1.0208963
1.0531298
4.1840804
1.9544074
2.2306577
44.685532
84.216308
1.0027175
1.031208
1.0542553
4.3161936
2.4803319
1.7990093
28.320507
67.951185
1.0035295
1.0405867
1.0543134
4.3479384
2.704998
2.5014896
26.592742
54.774568
1.0030755
1.056207
1.0540199
1.0259095
1.1482125
1.1342694
4.4497795
18.102712
1.0006202
1.0005666
1.0047835
1.0256534
1.0332952
1.0515333
4.2433903
19.720736
1.0010277
1.005672
1.0340644
1.0293969
1.0517576
1.0425221
3.9818983
17.114576
1.0014102
1.0449656
1.0194543
1.0349893
1.0474999
1.0424315
3.9942898
16.180822
1.0018662
1.0415583
1.0063025
1.0301556
1.0328646
1.0417195
3.7616655
13.023751
1.0025335
1.0027277
1.0173597
1.0434293
1.4833815
1.0607083
3.6599855
9.7557125
1.0027235
1.0192534
1.0545012
1.0273562
1.8477248
1.0745218
3.8551491
8.1453724
1.0029661
1.0449319
1.0551718
1.006797
1.0135984
1.1219656
2.8917491
4.3782855
1.0037692
1.0562633
1.055875
1.0411017
1.074667
1.3982924
1.2443311
1.0231966
1.1866583
1.0003554
1.0000398
1.0254596
1.0797603
1.2773981
1.199487
1.0702989
1.0328264
1.0004112
1.003694
1.044437
1.1110818
1.1565249
1.1255649
1.1170169
1.0025384
1.0737896
1.0185865
1.1212624
1.044341
1.0432531
1.0577653
1.1196858
1.032091
1.117515
1.0076262
1.0116583
1.2575541
1.0466773
1.3150503
1.1230532
1.1013244
1.1174223
1.0005242
1.0018324
1.0692869
1.0869983
1.2270176
1.0960109
1.2347714
1.0451422
1.0009652
1.0015969
1.0532628
1.0868584
1.0397347
1.0811623
1.2267496
1.0031608
1.0073379
1.0015157
1.0168387
1.0746285
1.1551826
1.245039
1.1588038
1.0027934
1.0141059
1.1017329
1.5943305
2.0460193
1.3166276
1.0195305
1.1862842
1.0431774
1.0000398
1.0275114
1.5619576
2.1525958
1.3080226
1.0122918
1.1314248
1.0073663
1.0000398
1.0701296
1.7916853
2.1877999
1.1773541
1.0054441
1.0369915
1.0057513
1.007988
1.2159366
1.98928
2.1876792
1.1371011
1.0007615
1.0069853
1.0135409
1.0135269
1.8463274
1.3664108
2.1879134
1.0392574
1.0050146
1.0199906
1.0787321
1.0016394
1.8538205
2.1585803
2.1880288
1.0127833
1.0061793
1.0534593
1.105042
1.0004354
1.4353069
2.1877528
1.7038153
1.0089538
1.0044339
1.0972093
1.1009278
1.0000534
1.3827002
1.5461431
1.0167774
1.0100109
1.0081637
1.1369239
1.0113348
1.0000468
1.1127088
2.1882626
2.1882667
1.8700031
1.0332825
1.1860684
1.0575593
1.0000398
1.2430493
2.1882586
2.1882664
1.6371347
1.0277083
1.1859995
1.0081226
1.0000399
1.2813794
2.1880588
2.1882612
1.8352629
1.0007615
1.1530314
1.004534
1.0031821
1.3494415
2.1876216
2.1882218
1.8133762
1.0005949
1.047005
1.002351
1.0134505
1.365845
2.1880374
2.1881349
1.5460277
1.0015365
1.002727
1.0043777
1.0010427
1.4110701
2.1877952
2.1881156
1.2600353
1.0044794
1.0043699
1.0366119
1.0002774
1.351949
2.1878683
2.1880517
1.134337
1.0023965
1.0081798
1.0788605
1.0000468
1.296288
2.1877443
2.0675533
1.0611399
1.0075792
1.0159881
1.050283
1.0000419
1.0416595
1.7721427
2.1882717
1.7044157
1.0330366
1.0817395
1.050893
1.0101239
1.0866873
1.9558864
2.1882725
1.8107861
1.0592501
1.1027564
1.0324318
1.000041
1.0536024
2.0770138
2.1882432
2.1882117
1.0169903
1.15286
1.0001847
1.0004689
1.0572849
2.163846
2.1882234
2.1863007
1.0004091
1.152665
1.0001086
1.0038585
1.0491089
2.1881297
2.188208
2.1559239
1.0003384
1.0568493
1.0001086
1.0028758
1.1080177
2.1880338
2.1881349
2.1873696
1.0002668
1.0076864
1.0004708
1.0002944
1.1097865
2.1879458
2.1881156
2.1506976
1.0002348
1.0002903
1.0046933
1.0001201
1.1511205
2.1418725
2.1880517
1.8574951
1.0058584
1.0004879
1.0127267
1.0000488
1.0069775
1.11075
1.6463352
1.1927116
1.0081052
1.000612
1.0226554
1.0187002
1.0023117
1.1673934
1.8290002
1.2386336
1.0233984
1.0190624
1.0426119
1.0014631
1.0000405
1.1611685
1.9184602
1.8085366
1.0245864
1.0737333
1.0007141
1.0000479
1.0000414
1.2444877
1.9002403
1.8717967
1.0005602
1.1177725
1.0001086
1.000309
1.0000416
1.312963
1.8615127
1.8665087
1.0003375
1.0930005
1.0001025
1.0029002
1.0000767
1.3704852
1.8544735
2.0010379
1.0002349
1.0459433
1.000095
1.0006537
1.0147236
1.4145618
1.8559336
1.8243069
1.0001953
1.0085578
1.0000926
1.0001724
1.0382834
1.3251235
1.8092979
1.8095309
1.0001427
1.0001295
1.0001163
1.0001225
1.0033422
1.0036081
1.0087904
1.0012695
1.0009392
1.0001023
1.0045801
1.0117714
1.001959
1.0033743
1.0334624
1.0346175
1.0019934
1.0015274
1.0397194
1.0031001
1.0000387
1.0065053
1.0426368
1.0448479
1.0316408
1.0144907
1.0000479
1.0000477
1.0000386
1.003376
1.0611944
1.0334977
1.0177713
1.0413293
1.0014517
1.0000474
1.000039
1.0017666
1.1248682
1.737821
1.0227116
1.0841666
1.0001137
1.0010108
1.0000432
1.0000596
1.126301
1.9984533
1.0553928
1.1297609
1.0000926
1.0012389
1.0040383
1.0001127
1.1387835
1.6296745
1.0580858
1.0797349
1.0000902
1.0004741
1.018861
1.0008846
1.1266162
1.0172054
1.0288633
1.0250512
1.0000885
1.0001051
1.0013589
1.0038398
1.0058227
1.0017867
1.0000257
1.0000975
1.0008193
1.0002662
1.0023102
1.0005772
1.0006687
1.0005464
1.0001115
1.0016751
1.0035646
1.0036822
1.0000386
1.0006688
1.0010064
1.0007337
1.0168696
1.0107637
1.000244
1.000163
1.0000386
1.0000386
1.0027125
1.006726
1.0111048
1.0129433
1.0014821
1.0002774
1.0000386
1.0000389
1.0027962
1.1513793
1.1012381
1.0613138
1.000121
1.0010448
1.0000537
1.0000401
1.0000458
1.3543154
1.1427227
1.1316326
1.0000902
1.0012376
1.0035947
1.0000812
1.0000669
1.4885899
1.068867
1.1310663
1.0000885
1.0009906
1.0126135
1.0004456
1.0000674
1.197157
1.0323138
1.105815
1.0000884
1.0000884
1.0004626
1.0050345
1.0079867
1.0017151
1.0000246
1.0001234
1.0004857
1.0000483
1.0013546
1.0005763
1.0007865
1.0007411
1.001229
1.0025168
1.0001723
1.0036818
1.0000386
1.0001422
1.0012086
1.0065707
1.0121823
1.0091244
1.000173
1.0004258
1.0000386
1.0000386
1.0015274
1.0790882
1.0305284
1.0097945
1.000748
1.0008336
1.0000386
1.0000386
1.0000389
1.111765
1.1116374
1.0642112
1.0001311
1.0009885
1.0000388
1.0000389
1.0000387
1.0000458
1.0741068
1.1311519
1.0000928
1.0009342
1.0025824
1.0001274
1.0000605
1.009964
1.0239372
1.10316
1.0004683
1.0023585
1.0083274
1.0003485
1.0000529
1.0553066
1.0144073
1.07129
1.0000884
1.0000884
1.0003294
1.0043183
1.0079951
1.001751
1.0000236
1.0002068
1.0006919
1.0000378
1.0007544
1.0006011
1.0018147
1.0038021
1.0027108
1.0034271
1.0002798
1.0031147
1.0000386
1.0001697
1.0023874
1.0545597
1.0202823
1.0034454
1.0000496
1.0003111
1.0000386
1.0000386
1.0011421
1.0863654
1.042239
1.0057689
1.0001267
1.0006133
1.0000386
1.0000386
1.0000386
1.0613468
1.0164912
1.0522332
1.0002782
1.0002627
1.0000385
1.0000385
1.0000385
1.000039
1.0059599
1.0877595
1.0000961
1.0001511
1.0006041
1.0001458
1.0000386
1.0000465
1.000567
1.0136261
1.0028276
1.0037402
1.0029688
1.0003122
1.0000523
1.0003826
1.0003478
1.0103578
1.0131806
1.0080658
1.0002918
1.0018615
1.0079951
1.0013153
1.0000131
1.0001864
1.000836
1.0000305
1.0011285
1.0004709
1.0027173
1.0081519
1.0067763
1.004529
1.0001653
1.0010123
1.0048503
1.0007978
1.0054814
1.0725072
1.0322357
1.0029074
1.0000251
1.0002539
1.0000386
1.0028995
1.0004231
1.0861134
1.0237575
1.0014248
1.0000233
1.0000185
1.0000384
1.0000385
1.0000385
1.0000386
1.000045
1.0138248
1.0004734
1.0000175
1.0000382
1.0000383
1.0000384
1.0000385
1.0000396
1.0133248
1.0002737
1.0000194
1.0000489
1.0000747
1.0000385
1.0000387
1.0000424
1.0000531
1.0017659
1.0010422
1.0001293
1.0002791
1.0000388
1.0000394
1.0000405
1.0011515
1.0307538
1.0171488
1.0002607
1.0002541
1.0047393
1.0004546
1
1.0000445
1.0005624
1.0000248
1.0004892
1.000192
1.0012159
1.0061528
1.004084
1.003279
1.0000281
1.0019661
1.005952
1.0030709
1.0077027
1.0704603
1.0492303
1.0060286
1.000026
1.0006962
1.0101955
1.0130441
1.0010658
1.0831409
1.0275102
1.0007507
1.000019
1.0000175
1.000054
1.0000385
1.0000384
1.0000385
1.0000451
1.0000462
1.0002079
1.0000173
1.000038
1.0000382
1.0000383
1.0000386
1.0000996
1.0000692
1.0001791
1.0000189
1.0000371
1.000038
1.0000383
1.0000385
1.00017
1.0000667
1.0000182
1.0000215
1.0000362
1.0000935
1.0000385
1.0000386
1.0000394
1.0000652
1.0135516
1.0000279
1.0001114
1
1.0001733
1.000002
1
1.0000006
1.0000007
1.0000235
1.0001205
1.0000004
1.0001715
1.0010038
1.0029402
1.0004337
1.0133808
1.002833
1.0024924
1.0012501
1.0057811
1.0375948
1.0565316
1.0063992
1.0004268
1.000927
1.0143615
1.012829
1.0085562
1.0841522
1.0550193
1.002403
1.0000187
1.0000173
1.0156539
1.015671
1.0009812
1.0287794
1.0046365
1.0000211
1.0000174
1.0000173
1.0000645
1.000038
1.0003556
1.0003905
1.0006854
1.0000606
1.0000235
1.0000173
1.0000362
1.0000372
1.000164
1.0006624
1.0023021
1.000061
1.0000174
1.0000173
1.000036
1.0000362
1.0001006
1.0000394
1.0009127
1.0000909
1.0000182
1.0000218
1.000014
1
1
1
1.0000006
1.0000002
1.000006
1.0000022
1.0004812
1.0012381
1.0040415
1.0021778
1.0000148
1.0000004
1.0166419
1.0025286
1.0002555
1.0003384
1.0023669
1.004656
1.0449256
1.0000023
1.002698
1.0006889
1.0043053
1.0016417
1.0119971
1.0841529
1.0840257
1.0001442
1.0006982
1.0002364
1.0067774
1.0036373
1.0057087
1.0706251
1.0394385
1.0001781
1.0000174
1.0000173
1.0387656
1.0626065
1.000357
1.0094072
1.0019157
1.0000204
1.0000173
1.0000173
1.0082041
1.0287332
1.0018284
1.0320598
1.0026368
1.0000198
1.0000173
1.0000173
1.0000359
1.0000374
1.0004619
1.0420186
1.0017529
1.0000419
1.0000174
1.0000173
1.0000001
1.0000311
1.0000018
1
1
1
1.0000006
1.0000022
1.0003882
1.0030353
1.0062081
1.0010463
1
1.0343748
1.0134319
1.0006379
1.0003925
1.0003388
1.0016102
1.0045814
1.0054561
1.0496858
1.0238786
1.0000389
1.0003592
1.0003393
1.0044358
1.0448313
1.0771939
1.0269819
1.0085377
1.0010209
1.0005115
1.0291775
1.0054817
1.0643578
1.049245
1.0000236
1.0010711
1.0085822
1.0238681
1.1136549
1.0026505
1.0146278
1.0010656
1.0000193
1.0000174
1.00625
1.0954158
1.1195234
1.0007382
1.0593929
1.0008368
1.0000176
1.0000174
1.0008776
1.0307054
1.0957101
1.0000241
1.059571
1.0000194
1.0000178
1.0000176
1.0000177
1.0000001
1.0000061
1
1
1.000001
1
1
1
1.0000298
1.0017213
1.0053006
1.000029
1.0000001
1.0343249
1
1.0001508
1.001258
1.0020553
1.0031411
1.0026626
1.003898
1.1497182
1.0565984
1.0000088
1.0006342
1.0017636
1.0019475
1.0065952
1.0201475
1.3156047
1.0268238
1.0008341
1.015537
1.096991
1.0028074
1.0131044
1.0337037
1.3148391
1.0239054
1.0130078
1.0304921
1.1195593
1.0023378
1.0066061
1.0252671
1.1468151
1.0154778
1.0093102
1.0766964
1.1196587
1.017999
1.0285075
1.0142123
1.0077692
1.0000176
1.0013382
1.0872161
1.1196534
1.0180483
1.0594439
1.053208
1.0000184
1.0000179
1.0000303
1
1
1
1
1.0000003
1.0000011
1
1
1
1.0002345
1.0011421
1
1
1.0479194
1.0017437
1.0000659
1.0008484
1.0033695
1.0035266
1.0000558
1.0046526
1.3116019
1.0615913
1.0000088
1.0006388
1.0026794
1.0031207
1.0050482
1.0144423
1.3162513
1.0444362
1.0000088
1.0206815
1.0926833
1.0023459
1.002952
1.0356812
1.3157721
1.0647942
1.0048334
1.0221028
1.1196523
1.0023406
1.0030336
1.1225254
1.3160966
1.0994051
1.0047478
1.0265762
1.1196587
1.0874282
1.0021852
1.2161753
1.3160453
1.1395159
1.0002811
1.0768654
1.1196587
1.095556
1.0205012
1.0739542
1.2541039
1.1305515
1.000111
1
1
1
1
1
1.000002
1.0000003
1
1.0000001
1.0000032
1.0000006
1
1.0000406
1.0121864
1.0015972
1.0000332
1.000075
1.0017297
1.0030415
1
1.0088992
1.2411124
1.0449269
1.0000088
1.0006665
1.006142
1.0062303
1.0011108
1.031157
1.3161217
1.0402189
1.0000128
1.0127413
1.0666908
1.0047596
1.011012
1.0421333
1.31617
1.0557341
1.0000637
1.0103842
1.1196434
1.0070465
1.0058415
1.1523691
1.3161634
1.125404
1.0093553
1.0044941
1.1196587
1.0722816
1.0020041
1.2682995
1.3160966
1.2152133
1.0016025
1.0210951
1.1196534
1.0798854
1.0017004
1.1290949
1.316071
1.2219943
1.0000211
1
1
1
1
1
1.0000001
1
1
1
1
1
1
1.0000001
1.0002221
1.0000234
1.0000002
1
1.0001313
1.000734
1
1.0038368
1.0425046
1.0043197
1.0000142
1.0006872
1.0035684
1.0044461
1.000002
1.0254796
1.1973259
1.0166069
1.0000009
1.001134
1.0139895
1.0063688
1.0096964
1.0378049
1.2768556
1.021372
1.0000076
1.001859
1.0637029
1.0136224
1.0087812
1.0998303
1.3160966
1.0407554
1.0101025
1.0008159
1.0890692
1.0211949
1.0029106
1.1371457
1.3160879
1.0923145
1.044454
1.0006514
1.1066809
1.018439
1.0015422
1.1518777
1.315773
1.1423177
1.0163124
1.0000005
1
1
1
1
1
1
1
1.0000101
1
1
1
1
1
1
1
1
1
1.0000209
1.0000007
1.0000994
1.0001804
1.0000002
1.0000003
1.0057929
1.0004251
1.0003902
1.0000374
1.0047026
1.0194458
1.0009219
1.0000001
1.0080043
1.0006552
1.0026648
1.0049506
1.0154978
1.0588245
1.0024329
1.0000114
1.0143572
1.0038919
1.0130198
1.0083288
1.0212466
1.1413815
1.0037554
1.004935
1.0028416
1.0085223
1.0110968
1.0142481
1.0196005
1.213728
1.0084716
1.0138889
1.0006893
1.0092803
1.0082108
1.0286174
1.0646087
1.3060356
1.0254539
1.0190554
1.0000004
1.0000001
1
1
1
1
1
1
1.0000099
1
1
1
1
1
1
1
1.0006412
1
1.000013
1.0000004
1
1.0000001
1
1.0000001
1.0216504
1.0005956
1.0000131
1.0000222
1.0000057
1.0000016
1.0000106
1.0000001
1.0303758
1.0010048
1.0001578
1.0006774
1.0002595
1.0000087
1.0000002
1.0000001
1.0339681
1.0005286
1.0070943
1.0083944
1.0000303
1.0039986
1.0042422
1.0006654
1.0248228
1.0009267
1.0243368
1.0274537
1.0023805
1.0240765
1.0140655
1.0032434
1.0026375
1.0016254
1.0094653
1.0313904
1.0070551
1.0690678
1.0239849
1.0048065
1.0000001
1
1
1
1
1
1
1
1.0000091
1.0000051
1.0000001
1
1
1
1
1
1.0005304
1
1.0000039
1.0000001
1
1
1
1.0000001
1.0236644
1.0008365
1.0000526
1.0000006
1.0000001
1.0000006
1.0000038
1
1.0339898
1.0009878
1.0000645
1.0000005
1.0000003
1.000001
1.0028655
1.0001071
1.0339973
1.0001758
1.0002306
1.0026093
1.0000289
1.001032
1.0295653
1.0009816
1.0340167
1.0010405
1.018138
1.0128146
1.0001401
1.0023635
1.0424102
1.0057841
1.0173897
1.0014366
1.0091878
1.0143517
1.0000218
1.0018184
1.017384
1.0036107
1
1
1
1
1
1
1
1
1.0000101
1.0000861
1.0000016
1
1
1.0000001
1
1
1.0002649
1.0000001
1.000001
1
1.0000001
1.0000005
1
1
1.0191545
1.0006465
1.0000078
1
1.0000003
1.0000003
1.0000133
1
1.0339968
1.0010469
1.0000066
1.0000072
1.0000003
1.0001588
1.0058379
1.0012732
1.0340159
1.0000078
1.0000067
1.0001187
1.0000192
1.0055791
1.0342781
1.0046153
1.0340224
1.0003991
1.0077264
1.0039006
1.0000199
1.0135419
1.0424799
1.0102973
1.0333621
1.001145
1.0056703
1.002338
1.000021
1.0045858
1.0168288
1.0075055
1
1
1
1
1
1
1
1
1.000007
1.0000927
1.0000013
1
1
1
1
1
1.0003916
1.0005438
1.0000021
1
1.0000001
1.0000038
1
1
1.0074222
1.0002491
1
1
1.0000032
1.0000187
1.0000635
1.0000016
1.033813
1.0013811
1.0000022
1.0004444
1.0000004
1.000198
1.0110895
1.0039805
1.0340231
1.0022488
1.0003339
1.0041172
1.0000005
1.0065793
1.0292374
1.0083564
1.0340208
1.0008339
1.0054193
1.0149175
1.0030483
1.0136381
1.0424988
1.0104295
1.0340225
1.0019997
1.0105211
1.010389
1.0018055
1.0117147
1.0362614
1.0209511
1
1
1
1
1
1
1
1
1.0000054
1.000104
1
1
1
1
1
1
1.0003899
1.001571
1.0001382
1.0000011
1
1.0000014
1
1
1.0004208
1.0006551
1.0013917
1
1.0000047
1.00037
1.0000868
1.0000019
1.0168977
1.0059647
1.0005656
1.0010515
1.0000005
1.0001478
1.0117006
1.0037055
1.0340186
1.0217263
1.0007132
1.0144041
1.0017616
1.0032443
1.0339676
1.0072605
1.0340214
1.014324
1.0033503
1.0203529
1.0178248
1.0040633
1.0425156
1.0075331
1.0340186
1.0040338
1.013367
1.0202943
1.0111671
1.0115065
1.0425372
1.0216211
1
1
1
1
1
1
1
1
1.0000738
1.0000361
1
1
1
1
1
1
1.0018
1.0016306
1.0006213
1.0000134
1
1
1
1
1.0005194
1.0021943
1.0033169
1.0000165
1.0000009
1.0012167
1.0001621
1.0000002
1.0054516
1.0077339
1.0035675
1.0006988
1.0000005
1.0074599
1.009537
1.0015344
1.0180285
1.0284893
1.0019227
1.0144369
1.0046502
1.0059076
1.0362269
1.0033861
1.0134505
1.0285093
1.0026971
1.0203528
1.0203529
1.0143994
1.0425391
1.0026457
1.0145305
1.0071137
1.0082068
1.0202224
1.0142646
1.0081372
1.0425479
1.0126145
1
1
1
1
1
1
1
1
1.0000704
1.0000011
1
1
1.0000001
1
1
1
1.0019022
1.0011919
1.0010225
1.0000134
1
1
1
1
1.0018881
1.0025342
1.0036905
1.000182
1.0000069
1.0016054
1.0002613
1.0000079
1.0064159
1.0051258
1.0046839
1.0000965
1.0000005
1.0230906
1.0075721
1.0002143
1.0028926
1.027744
1.0030245
1.0070936
1.003533
1.0346334
1.0336717
1.0009933
1.0001838
1.0285435
1.0027212
1.0174536
1.0136706
1.0425344
1.0425521
1.0011492
1.0071254
1.0071913
1.0009979
1.0126944
1.0099488
1.0120458
1.0425564
1.0022403
1
1
1
1
1
1
1
1
1.0000204
1
1
1
1.0000004
1
1
1
1.000881
1.0003511
1.0008952
1.0000045
1
1
1.0000001
1
1.0018759
1.0012845
1.0036405
1.0003624
1.0000151
1.0025694
1.0002089
1.0000049
1.0061516
1.0008071
1.0038118
1.000129
1.0000205
1.0357028
1.0052889
1.0000578
1.0053119
1.0100385
1.0028473
1.0008496
1.0007321
1.0425641
1.0249132
1.0006204
1.0001251
1.0276713
1.0016907
1.0027007
1.0027914
1.0425551
1.0425581
1.001667
1.0042747
1.0063013
1.0007554
1.0020114
1.0028148
1.0264568
1.0425784
1.0012288
1
1
1
1
1
1
1
1
1.0000085
1
1
1
1.000001
1
1
1
1.0001159
1.0000108
1.0003332
1.0000113
1.0000007
1.0000003
1.0000001
1
1.001084
1.0000416
1.0036418
1.0002847
1.0000067
1.0016399
1.0000773
1.0000011
1.0046466
1.0000025
1.0020966
1.0001933
1.0001712
1.0333829
1.003294
1.0000085
1.0035126
1.0005259
1.0009149
1.0001933
1.0005538
1.0425653
1.012574
1.0003476
1.0000765
1.0028057
1.0022495
1.0009038
1.0007907
1.0425642
1.0414465
1.0022704
1.0006852
1.0032279
1.000755
1.0004471
1.0007819
1.0421287
1.0425877
1.0027053
1
1
1
1
1
1
1
1
1.0000001
1
1
1
1.0000012
1
1
1
1.0000204
1.0000007
1
1.0000407
1.0000032
1.0000002
1
1
1.0012068
1.0000006
1.0024809
1.0000368
1.0000017
1.0001209
1.0000058
1.0000001
1.0020563
1.0000006
1.0006269
1.000157
1.0002674
1.0141738
1.0009572
1.0000055
1.0001061
1.0000008
1.0003545
1.0002498
1.0009982
1.0425637
1.0047999
1.0000337
1.0000743
1.0000762
1.0031002
1.002832
1.0009999
1.0425767
1.0218055
1.0012209
1.0019356
1.0005509
1.0009836
1.0013418
1.0009598
1.0425837
1.0425784
1.0034525
1
1
1
1
1
1
1
1
1
1
1
1
1.0000012
1
1
1
1.0000637
1.0000022
1.00003
1.0000482
1.0000085
1
1
1
1.0011258
1.0000006
1.0001872
1.0002553
1.0000008
1.0000015
1
1
1.0000006
1.0000006
1.0000972
1.0001963
1.0000965
1.0010547
1.0000745
1.0000024
1.0000037
1.0000006
1.0001817
1.0004885
1.0009044
1.0160001
1.0008444
1.0000004
1.0127116
1.0001371
1.0031006
1.0031002
1.0009005
1.0304539
1.0029466
1.0000803
1.0205216
1.0008245
1.0010237
1.002657
1.0010289
1.0352507
1.0184414
1.0011894
1
1
1
1
1
1
1
1
1
1.0000001
1
1
1.0000009
1
1
1
1.000044
1.0000052
1.0000309
1.0000606
1.0000108
1
1
1
1.0009104
1.0000006
1.0004023
1.0008804
1.0000066
1
1
1
1.0006834
1.0000006
1.0000706
1.000212
1.0000047
1.0002199
1.0000159
1.0000011
1.0002164
1.0000007
1.0000053
1.0003806
1.00049
1.0021312
1.00011
1.0000004
1.0316348
1.0001664
1.0028167
1.0026109
1.0007141
1.0045217
1.0000628
1.0000041
1.0501104
1.0013968
1.0025442
1.0025035
1.0009686
1.0082563
1.0005148
1.0002238
1
1
1
1
1
1
1
1
1
1.0000002
1
1
1.0000006
1
1
1
1.000003
1.0000073
1.0000432
1.0000668
1.00001
1
1
1
1.0004458
1.0000009
1.000881
1.000881
1.0000177
1
1
1.0000001
1.0007652
1.0000006
1.0000643
1.0002111
1.0000011