/*--------------------------------*- C++ -*----------------------------------*\
  =========                 |
  \\      /  F ield         | OpenFOAM: The Open Source CFD Toolbox
   \\    /   O peration     | Website:  https://openfoam.org
    \\  /    A nd           | Version:  13
     \\/     M anipulation  |
\*---------------------------------------------------------------------------*/
FoamFile
{
    format      ascii;
    class       volVectorField;
    location    "0.09";
    object      U;
}
// * * * * * * * * * * * * * * * * * * * * * * * * * * * * * * * * * * * * * //

dimensions      [0 1 -1 0 0 0 0];

internalField   nonuniform List<vector> 
51200
(
(0.053447734 0.012913763 0.011820242)
(0.058517806 0.0069926499 0.012035984)
(0.057191031 0.003141626 0.012122478)
(0.056474122 0.00083438965 0.012153088)
(0.056474153 -0.0008331558 0.012153085)
(0.05719112 -0.0031405368 0.012122472)
(0.058517948 -0.0069918705 0.012035977)
(0.053447908 -0.012913573 0.011820235)
(0.12302408 0.03193721 0.03385943)
(0.12998543 0.014335193 0.033138595)
(0.12699768 0.0065030894 0.033133325)
(0.12559831 0.0017581296 0.033162184)
(0.12559837 -0.0017554318 0.033162172)
(0.12699786 -0.006500706 0.033133299)
(0.12998571 -0.014333429 0.033138563)
(0.12302446 -0.031936659 0.033859399)
(0.16697518 0.041727637 0.046553446)
(0.17232023 0.018123691 0.044330457)
(0.16845223 0.0082865395 0.044133128)
(0.16681063 0.0022592325 0.044217124)
(0.1668107 -0.0022556524 0.044217101)
(0.16845243 -0.0082833487 0.044133068)
(0.17232054 -0.018121229 0.044330368)
(0.16697566 -0.041726692 0.046553356)
(0.19410667 0.045541144 0.052529243)
(0.19672312 0.019862204 0.048835644)
(0.19251581 0.0091165961 0.048435803)
(0.19086945 0.0025041906 0.048583211)
(0.19086952 -0.0025000824 0.048583176)
(0.192516 -0.0091128976 0.048435706)
(0.19672342 -0.01985924 0.048835495)
(0.19410717 -0.04553979 0.052529066)
(0.2100847 0.046004248 0.054381611)
(0.20999555 0.020413288 0.049523096)
(0.2058004 0.0093692436 0.048973098)
(0.20426588 0.0025935765 0.049166774)
(0.20426595 -0.0025891589 0.049166728)
(0.20580058 -0.0093652254 0.048972966)
(0.20999582 -0.020409952 0.049522894)
(0.21008517 -0.046002491 0.054381338)
(0.21866342 0.044572116 0.053583946)
(0.21637046 0.020272909 0.04797189)
(0.21240139 0.0092761059 0.047345644)
(0.21102645 0.002589315 0.047554903)
(0.2110265 -0.0025847212 0.047554849)
(0.21240154 -0.0092718835 0.047345484)
(0.21637069 -0.02026929 0.047971645)
(0.21866384 -0.044569972 0.053583581)
(0.22239662 0.04205445 0.051042384)
(0.21852914 0.019734971 0.045145159)
(0.21491012 0.0089773684 0.044498395)
(0.21370726 0.0025288146 0.04468578)
(0.21370731 -0.0025241239 0.044685719)
(0.21491026 -0.0089730095 0.044498212)
(0.21852933 -0.019731125 0.045144885)
(0.222397 -0.042051939 0.051041941)
(0.22298309 0.039036513 0.047552715)
(0.21814439 0.018913225 0.04160362)
(0.21494579 0.0085630078 0.041034728)
(0.21391211 0.0024344475 0.041168929)
(0.21391216 -0.0024297079 0.041168861)
(0.2149459 -0.0085585475 0.041034527)
(0.21814455 -0.018909181 0.041603335)
(0.22298342 -0.039033662 0.047552225)
(0.036054822 0.003394279 0.001253581)
(0.041646874 0.0037700978 0.0013583226)
(0.039907221 0.0022093274 0.0012890908)
(0.038605532 0.00070946334 0.001268852)
(0.038605692 -0.00070709536 0.0012688497)
(0.039907714 -0.0022072453 0.0012890852)
(0.041647665 -0.0037686298 0.0013583193)
(0.03605564 -0.0033939952 0.0012535869)
(0.095910018 0.011343696 0.0075276746)
(0.10658681 0.010580918 0.0078165559)
(0.10210209 0.0059644294 0.0075106608)
(0.099103347 0.0018819263 0.0074314244)
(0.099103701 -0.0018761265 0.0074314088)
(0.10210319 -0.0059593036 0.0075106123)
(0.10658863 -0.01057717 0.007816521)
(0.095912053 -0.011342687 0.0075276616)
(0.14516716 0.019507513 0.015279611)
(0.1566054 0.016206678 0.015398307)
(0.15005401 0.0089291922 0.014775713)
(0.14605493 0.0027910246 0.014639454)
(0.14605538 -0.0027828103 0.014639419)
(0.15005541 -0.008921861 0.014775595)
(0.1566078 -0.016201116 0.015398199)
(0.14517003 -0.019505625 0.015279523)
(0.18429514 0.026560521 0.022859657)
(0.19368963 0.020451478 0.022499659)
(0.18570056 0.011098756 0.02156063)
(0.18121612 0.0034512794 0.021384686)
(0.18121661 -0.0034414141 0.021384629)
(0.18570207 -0.011089859 0.021560423)
(0.19369227 -0.020444485 0.022499447)
(0.18429851 -0.026557668 0.022859439)
(0.21391672 0.031918437 0.029280353)
(0.21977159 0.023368434 0.028255218)
(0.21091139 0.012552595 0.027051583)
(0.20630131 0.0038951558 0.026853141)
(0.2063018 -0.0038841924 0.026853062)
(0.21091288 -0.012542606 0.027051284)
(0.21977424 -0.023360313 0.028254887)
(0.2139203 -0.031914586 0.029279964)
(0.23498978 0.035534262 0.034160163)
(0.23682959 0.025125673 0.032414186)
(0.22758145 0.013405793 0.031030073)
(0.22308017 0.0041611547 0.030821403)
(0.22308063 -0.0041494798 0.030821305)
(0.22758284 -0.013395046 0.031029687)
(0.2368321 -0.025116659 0.032413733)
(0.23499338 -0.035529418 0.034159583)
(0.24867837 0.037622121 0.037482985)
(0.24674264 0.025906936 0.035050256)
(0.23749427 0.013775417 0.033584711)
(0.23324404 0.0042857658 0.033373611)
(0.23324446 -0.0042736429 0.033373494)
(0.23749555 -0.013764148 0.033584254)
(0.24674493 -0.025897213 0.035049694)
(0.24868184 -0.037616318 0.037482214)
(0.25612867 0.038444064 0.039391347)
(0.25113973 0.025855851 0.03631729)
(0.24217611 0.013764254 0.034900168)
(0.23825893 0.00429924 0.034692291)
(0.23825932 -0.0042868489 0.034692151)
(0.24217726 -0.013752627 0.034899668)
(0.25114176 -0.025845561 0.036316644)
(0.25613193 -0.038437383 0.039390432)
(0.0163106 0.0014866789 -1.4161203e-06)
(0.023405908 0.0028465956 8.8007943e-05)
(0.024108382 0.0019308841 8.9121954e-05)
(0.023455441 0.00064599478 8.4299299e-05)
(0.023455827 -0.00064257124 8.4294817e-05)
(0.024109594 -0.0019278844 8.9115179e-05)
(0.023407798 -0.0028445528 8.8004604e-05)
(0.01631239 -0.0014863516 -1.4114821e-06)
(0.052399767 0.0050967411 0.0019175747)
(0.069134173 0.0080844553 0.0023983432)
(0.069983666 0.0052787674 0.0022937325)
(0.068124567 0.0017568462 0.0022055987)
(0.068125462 -0.0017481881 0.00220557)
(0.06998651 -0.0052711357 0.0022936693)
(0.069138797 -0.0080790513 0.002398318)
(0.052404504 -0.0050954411 0.0019175722)
(0.089841906 0.0096391633 0.0053806257)
(0.11190926 0.012862924 0.0062181226)
(0.11198996 0.0081282631 0.0059246067)
(0.10909093 0.0026866159 0.005710698)
(0.10909212 -0.0026740619 0.0057106357)
(0.11199378 -0.0081170873 0.0059244514)
(0.11191571 -0.012854716 0.0062180398)
(0.089848938 -0.0096366178 0.0053805746)
(0.12643365 0.014739364 0.0100427)
(0.15012189 0.017032215 0.011061837)
(0.14890497 0.010459736 0.010507698)
(0.14519145 0.0034353107 0.010144118)
(0.14519278 -0.0034199416 0.010144016)
(0.14890927 -0.01044591 0.010507421)
(0.15012938 -0.017021698 0.011061657)
(0.12644232 -0.014735407 0.010042547)
(0.16018893 0.019849664 0.015248009)
(0.1826392 0.020445286 0.016192825)
(0.17993699 0.012259989 0.015332682)
(0.17565989 0.0040065623 0.014819119)
(0.17566125 -0.0039892192 0.014818977)
(0.17994139 -0.012244222 0.015332265)
(0.18264712 -0.020432882 0.016192511)
(0.16019863 -0.019844208 0.015247695)
(0.18958612 0.024542688 0.020462417)
(0.20893036 0.023009693 0.021074799)
(0.20480331 0.013536177 0.01988646)
(0.20020309 0.0044094477 0.01923733)
(0.2002044 -0.0043907607 0.01923715)
(0.20480758 -0.013519012 0.019885899)
(0.20893823 -0.022995746 0.02107432)
(0.18959631 -0.024535699 0.020461889)
(0.21364307 0.028550832 0.025320988)
(0.22901837 0.024679639 0.025356733)
(0.22366117 0.014317995 0.023841351)
(0.21894479 0.0046583156 0.023082922)
(0.21894603 -0.0046387449 0.023082708)
(0.22366515 -0.014299838 0.023840652)
(0.22902586 -0.024664437 0.025356074)
(0.21365331 -0.028542324 0.025320206)
(0.23184451 0.031567813 0.029327129)
(0.24335429 0.025461965 0.028684778)
(0.23696528 0.014659646 0.026903059)
(0.2323019 0.0047722048 0.026088873)
(0.23230303 -0.0047520831 0.026088633)
(0.2369689 -0.0146408 0.026902248)
(0.24336119 -0.025445738 0.028683943)
(0.23185449 -0.031557887 0.029326125)
(0.014196855 0.00059079689 7.7921841e-05)
(0.02091501 0.0015869679 0.00010767862)
(0.022437798 0.0012419412 0.00010043879)
(0.022224062 0.00043926715 9.0038647e-05)
(0.022224749 -0.00043449094 9.0033138e-05)
(0.022439918 -0.0012378123 0.0001004337)
(0.020918189 -0.0015842694 0.00010768091)
(0.014199708 -0.0005904543 7.7931434e-05)
(0.043833841 0.0022584387 0.00077583313)
(0.060460877 0.0048553158 0.0010580799)
(0.06389268 0.0036450897 0.0010138476)
(0.063199133 0.0012796547 0.00092386518)
(0.063200758 -0.0012674123 0.00092382992)
(0.063897781 -0.0036344315 0.0010137891)
(0.060468843 -0.0048480395 0.0010580987)
(0.043841534 -0.0022569052 0.00077586402)
(0.074050479 0.0045792094 0.0022448903)
(0.09738545 0.008157244 0.0028949)
(0.10169149 0.0059036917 0.0027640664)
(0.10046051 0.0020557876 0.002542673)
(0.10046272 -0.0020378479 0.0025425953)
(0.10169854 -0.0058879105 0.0027639132)
(0.097396848 -0.0081460475 0.0028949142)
(0.074062144 -0.0045760522 0.0022449152)
(0.10422582 0.0074730872 0.0044784939)
(0.13142596 0.011363262 0.0054998492)
(0.13573208 0.0079462513 0.0052233646)
(0.13393433 0.0027449355 0.0048361639)
(0.13393686 -0.0027227702 0.0048360355)
(0.13574024 -0.0079265398 0.0052230777)
(0.13143962 -0.011348769 0.0054998241)
(0.1042406 -0.0074680333 0.0044784682)
(0.13356768 0.010769273 0.0073539138)
(0.16218393 0.014315661 0.0086417111)
(0.16581706 0.0097037103 0.0081573884)
(0.16346894 0.0033279994 0.0075909674)
(0.16347158 -0.0033027957 0.0075907857)
(0.16582567 -0.0096810491 0.0081569392)
(0.16219887 -0.014298425 0.008641599)
(0.13358472 -0.010762171 0.0073537783)
(0.16115601 0.014248915 0.010680916)
(0.18924329 0.01685944 0.012051226)
(0.19174138 0.011123973 0.011303043)
(0.18890373 0.0037924744 0.010562679)
(0.18890635 -0.0037651556 0.010562446)
(0.19174997 -0.011099142 0.011302416)
(0.18925869 -0.016839938 0.012050977)
(0.16117451 -0.014239698 0.010680602)
(0.18605008 0.017669393 0.014228722)
(0.212311 0.018861594 0.015447645)
(0.21338515 0.012180322 0.014397868)
(0.21015173 0.0041338817 0.013507137)
(0.21015422 -0.0041051465 0.013506857)
(0.21339336 -0.012153924 0.014397059)
(0.21232618 -0.018840228 0.01544722)
(0.18606931 -0.017658067 0.014228166)
(0.20741136 0.020706655 0.01760955)
(0.23134061 0.020250445 0.018566737)
(0.23077459 0.012875678 0.017202372)
(0.22726268 0.0043561474 0.016215187)
(0.22726499 -0.0043265174 0.016214869)
(0.23078221 -0.012848176 0.017201399)
(0.23135505 -0.020227538 0.018566105)
(0.20743071 -0.020693347 0.017608771)
(0.011499152 0.000328806 1.5637418e-05)
(0.018053698 0.00097424518 4.4405852e-05)
(0.02034064 0.00080213174 4.423672e-05)
(0.020636854 0.0002887075 3.56088e-05)
(0.020637993 -0.00028201643 3.5603e-05)
(0.020344084 -0.00079644143 4.423336e-05)
(0.018058697 -0.00097065832 4.441285e-05)
(0.011503495 -0.00032842641 1.56494e-05)
(0.036258381 0.0012654207 0.00042677921)
(0.052978757 0.0030253096 0.00064464946)
(0.058566613 0.0024299825 0.00061930677)
(0.059186494 0.00087761099 0.00053264446)
(0.059189235 -0.00086036637 0.00053260422)
(0.058575055 -0.0024151891 0.00061925211)
(0.052991488 -0.0030155166 0.00064470528)
(0.036270255 -0.0012635407 0.00042682243)
(0.062103175 0.002593444 0.0012810015)
(0.086252245 0.0051730311 0.0017700047)
(0.093971522 0.0040459945 0.001687254)
(0.09466048 0.0014574668 0.0014749455)
(0.094664267 -0.0014320854 0.0014748534)
(0.093983368 -0.0040239737 0.0016871001)
(0.086270715 -0.0051578317 0.0017701013)
(0.062121391 -0.0025894201 0.0012810506)
(0.088465677 0.0043018692 0.0025885584)
(0.11760556 0.0073672724 0.0033729726)
(0.12642698 0.0056028278 0.0031924504)
(0.12696757 0.0020084717 0.0028221881)
(0.12697195 -0.0019769877 0.0028220315)
(0.12644092 -0.0055751955 0.0031921469)
(0.11762803 -0.0073474632 0.0033730805)
(0.088489017 -0.0042952803 0.0025885699)
(0.11474613 0.0063328871 0.0043049113)
(0.14676842 0.0095238931 0.0053468913)
(0.15581292 0.0070439555 0.0050234495)
(0.1560371 0.002510619 0.0044814866)
(0.15604175 -0.0024746984 0.0044812603)
(0.1558279 -0.0070120652 0.005022956)
(0.1467934 -0.009500218 0.005346959)
(0.11477339 -0.0063234942 0.004304826)
(0.14031116 0.0085995114 0.0063639822)
(0.17348994 0.011538291 0.0075671026)
(0.18202624 0.0083150398 0.0070547053)
(0.18182025 0.0029464625 0.0063435357)
(0.18182491 -0.002907427 0.0063432401)
(0.18204144 -0.0082799889 0.0070539944)
(0.17351614 -0.011511412 0.0075670691)
(0.14034119 -0.0085872096 0.0063637266)
(0.16450548 0.010974911 0.0086631554)
(0.19758209 0.013300345 0.0098820503)
(0.20499826 0.0093741838 0.0091434206)
(0.20430245 0.003303683 0.0082823)
(0.20430694 -0.0032625542 0.0082819403)
(0.20501307 -0.0093368394 0.0091424798)
(0.19760844 -0.013270835 0.0098818581)
(0.1645372 -0.010959708 0.008662655)
(0.18668688 0.013246533 0.010977275)
(0.21898833 0.014734601 0.012154766)
(0.22471601 0.010199552 0.01116023)
(0.22352603 0.0035768518 0.010195377)
(0.22353025 -0.0035344072 0.010194963)
(0.22472998 -0.010160589 0.01115907)
(0.21901392 -0.014702921 0.012154355)
(0.18671936 -0.013228608 0.010976559)
(0.010238904 0.00018736057 1.4269239e-05)
(0.016502991 0.00057930141 3.2439845e-05)
(0.019185617 0.00048786379 3.1653284e-05)
(0.019855391 0.00017835562 2.4000505e-05)
(0.019857175 -0.00016897523 2.3995628e-05)
(0.019190891 -0.00048003338 3.1650209e-05)
(0.016510423 -0.00057454968 3.2448699e-05)
(0.010245183 -0.00018693044 1.4279913e-05)
(0.032329217 0.00073420553 0.00025649564)
(0.048588347 0.0018427213 0.00041433407)
(0.055409648 0.0015387268 0.00040103375)
(0.057053733 0.00056995987 0.00032862876)
(0.057058084 -0.00054571859 0.00032858923)
(0.05542274 -0.0015182679 0.00040098489)
(0.048607475 -0.001829608 0.00041441952)
(0.03234654 -0.00073187241 0.00025652803)
(0.055508237 0.0015230764 0.00077133699)
(0.079408631 0.0032121242 0.0011405133)
(0.089214209 0.0026382956 0.001094534)
(0.091475792 0.00097959873 0.00091701199)
(0.091481875 -0.00094384435 0.00091691575)
(0.0892328 -0.002607731 0.0010943892)
(0.079436656 -0.0031916118 0.0011406829)
(0.055535031 -0.0015179159 0.00077135823)
(0.079358597 0.0025575402 0.0015709153)
(0.10880211 0.0046652951 0.0021813827)
(0.12054193 0.0037544222 0.0020758209)
(0.12309444 0.001391613 0.0017658355)
(0.12310158 -0.0013471814 0.0017656642)
(0.12056408 -0.0037159529 0.0020755197)
(0.10883657 -0.0046383893 0.0021816157)
(0.079393229 -0.0025489275 0.0015708789)
(0.10343854 0.0038168553 0.002636892)
(0.13660112 0.0061579771 0.0034743499)
(0.14933198 0.0048471368 0.0032776672)
(0.15189003 0.0017896314 0.002823113)
(0.15189769 -0.0017388648 0.0028228564)
(0.1493561 -0.0048026324 0.0032771536)
(0.13663984 -0.006125659 0.003474592)
(0.10347936 -0.0038044203 0.0026367357)
(0.12728367 0.0052639433 0.0039383677)
(0.16265368 0.0076296176 0.0049485437)
(0.17553188 0.0058747633 0.0046275035)
(0.17785862 0.002158024 0.0040293958)
(0.17786639 -0.0021027992 0.004029051)
(0.1755567 -0.0058257614 0.004626734)
(0.1626948 -0.0075927948 0.0049487231)
(0.12732908 -0.0052475135 0.0039380119)
(0.15041287 0.0068366995 0.0054241979)
(0.18685368 0.0090101305 0.0065196274)
(0.19910714 0.0068000756 0.0060448057)
(0.20101976 0.0024837181 0.0053173779)
(0.20102734 -0.0024255024 0.0053169479)
(0.19913166 -0.0067478071 0.0060437531)
(0.18689559 -0.0089696126 0.0065196708)
(0.15046136 -0.0068162725 0.0054235601)
(0.1723407 0.0084155267 0.0069730066)
(0.20918359 0.010245073 0.0081217436)
(0.22004584 0.0075957332 0.0074612582)
(0.22142441 0.0027578398 0.0066395756)
(0.2214316 -0.0026977625 0.006639068)
(0.22006931 -0.0075411672 0.007459919)
(0.20922491 -0.010201524 0.0081215639)
(0.17239092 -0.0083913479 0.0069721452)
(0.0094039534 0.00011921567 7.5168581e-06)
(0.015446537 0.00036093601 2.100591e-05)
(0.018371958 0.00030086656 2.1341032e-05)
(0.019312037 0.00011130509 1.561944e-05)
(0.01931477 -9.8122718e-05 1.5618241e-05)
(0.018379873 -0.00029006739 2.1336279e-05)
(0.015457431 -0.00035464019 2.1014859e-05)
(0.0094129582 -0.00011869991 7.5232914e-06)
(0.029787388 0.00046117961 0.00016042364)
(0.045635306 0.0011577999 0.00027709015)
(0.053220457 0.0009770068 0.00027321946)
(0.055618396 0.00037030293 0.00021817398)
(0.055625128 -0.00033620238 0.00021814091)
(0.053240276 -0.00094869423 0.00027316377)
(0.045663539 -0.0011402684 0.0002771739)
(0.029812383 -0.00045821808 0.00016040002)
(0.051282932 0.00095351142 0.0004881326)
(0.074815407 0.0020374349 0.00076391005)
(0.085931291 0.0017125558 0.0007446143)
(0.089373172 0.00065405211 0.00060917719)
(0.089382668 -0.00060372054 0.00060908179)
(0.08595965 -0.0016701539 0.0007444502)
(0.074857018 -0.002009821 0.00076407138)
(0.051321789 -0.00094681325 0.00048800189)
(0.07353622 0.0016037594 0.0010008592)
(0.10286695 0.0029936201 0.0014636666)
(0.11647536 0.0024890641 0.0014121622)
(0.12057471 0.00095199401 0.0011751026)
(0.12058595 -0.00088941578 0.0011749166)
(0.11650942 -0.0024355895 0.0014118146)
(0.10291842 -0.0029571833 0.0014638819)
(0.073586697 -0.0015924268 0.0010005456)
(0.096180147 0.0024050477 0.0016895699)
(0.1296711 0.0040055395 0.002337122)
(0.14482016 0.0032818936 0.0022327398)
(0.14922548 0.0012527113 0.0018844669)
(0.14923766 -0.0011811919 0.0018841722)
(0.14485758 -0.0032199362 0.0022321343)
(0.12972933 -0.0039615575 0.0023373327)
(0.096239955 -0.0023885283 0.0016889958)
(0.11883429 0.0033415583 0.0025383854)
(0.15512492 0.0050408302 0.0033414908)
(0.17093641 0.0040634664 0.0031617474)
(0.1753377 0.0015445776 0.0027026313)
(0.17535017 -0.001466779 0.0027022193)
(0.17097527 -0.0039951788 0.0031608228)
(0.15518721 -0.0049905259 0.0033416187)
(0.11890119 -0.0033195752 0.0025374625)
(0.14110582 0.0043831119 0.0035204619)
(0.17916298 0.0060588495 0.004428063)
(0.19480247 0.0048066513 0.0041516809)
(0.19893825 0.0018168669 0.0035918947)
(0.19895055 -0.0017348819 0.003591365)
(0.19484126 -0.0047337742 0.0041503951)
(0.179227 -0.0060033455 0.0044280295)
(0.1411777 -0.0043556328 0.0035191066)
(0.16259215 0.0054628692 0.0045683974)
(0.20178875 0.0070258005 0.0055644684)
(0.21640327 0.0054880401 0.0051637856)
(0.22007245 0.0020609384 0.0045283739)
(0.22008423 -0.001976387 0.0045277314)
(0.21644081 -0.0054119549 0.0051621223)
(0.20185246 -0.0069660388 0.0055641748)
(0.16266706 -0.0054302116 0.0045667323)
(0.008880692 7.9897121e-05 4.8050631e-06)
(0.014745861 0.00023534005 1.4270092e-05)
(0.017801686 0.00019396539 1.5053985e-05)
(0.018921059 7.4052348e-05 1.1005474e-05)
(0.01892521 -5.5467363e-05 1.1010361e-05)
(0.017813471 -0.00017902598 1.5041628e-05)
(0.014761763 -0.00022701337 1.42725e-05)
(0.0088935554 -7.9235851e-05 4.7999118e-06)
(0.0281708 0.0003043992 0.00010405998)
(0.043653101 0.00075655942 0.00018979899)
(0.051672762 0.00064104393 0.00019308403)
(0.054583951 0.00025157179 0.00015443033)
(0.054594245 -0.00020349086 0.00015440186)
(0.051702453 -0.00060177564 0.00019297587)
(0.043694526 -0.00073318183 0.00018979113)
(0.028206695 -0.00030056972 0.00010387457)
(0.048568159 0.00062548996 0.0003193964)
(0.071702514 0.0013372114 0.00052569939)
(0.083592343 0.0011394499 0.00052717261)
(0.087855572 0.00045103151 0.00043171204)
(0.087870177 -0.00038007338 0.00043160166)
(0.08363505 -0.0010805374 0.00052688109)
(0.071763813 -0.0013001459 0.00052562243)
(0.048624182 -0.00061673223 0.00031882899)
(0.069760023 0.0010507797 0.0006594927)
(0.098802512 0.0019776561 0.0010114009)
(0.11355044 0.0016793989 0.001001795)
(0.11875078 0.00066590815 0.00083410267)
(0.11876818 -0.00057771323 0.00083386397)
(0.11360202 -0.0016050049 0.0010012147)
(0.098878629 -0.0019284645 0.0010111926)
(0.069833063 -0.0010358378 0.00065838078)
(0.09142575 0.0015793076 0.0011206995)
(0.12486445 0.0026688318 0.0016219885)
(0.14153244 0.0022467218 0.0015881488)
(0.14728506 0.00088895625 0.0013409163)
(0.14730403 -0.00078821606 0.0013405183)
(0.14158941 -0.0021604509 0.0015871798)
(0.1249509 -0.0026091599 0.0016215738)
(0.091512589 -0.0015573818 0.0011189201)
(0.11323497 0.002205001 0.001695152)
(0.1498142 0.0033938605 0.0023307246)
(0.16752302 0.0028245107 0.0022572818)
(0.17347857 0.0011124111 0.0019302693)
(0.17349814 -0.001002914 0.0019296959)
(0.16758255 -0.002729384 0.0022558454)
(0.14990707 -0.0033253344 0.0023300266)
(0.11333243 -0.0021756626 0.0016926014)
(0.13484614 0.0029131782 0.0023683976)
(0.17360973 0.0041295612 0.0031078564)
(0.19150808 0.0033948297 0.0029790661)
(0.19735969 0.0013285859 0.0025790195)
(0.19737912 -0.0012133177 0.002578267)
(0.1915679 -0.0032933094 0.0029771118)
(0.17370562 -0.0040537144 0.0031068147)
(0.13495121 -0.0028763352 0.0023650044)
(0.1559054 0.0036647366 0.0031008006)
(0.19626774 0.0048557099 0.0039358498)
(0.21347182 0.0039405243 0.0037284763)
(0.21896773 0.0015306192 0.0032722955)
(0.21898648 -0.001411897 0.0032713688)
(0.21353014 -0.0038345766 0.0037259876)
(0.19636367 -0.0047738612 0.0039343935)
(0.15601528 -0.0036207821 0.0030968159)
(0.0085278776 5.7204418e-05 3.2232857e-06)
(0.014258425 0.00016537311 1.0020898e-05)
(0.017383845 0.00013796748 1.1192318e-05)
(0.018620171 5.6707583e-05 8.5087041e-06)
(0.018626506 -3.0354871e-05 8.5197711e-06)
(0.017401559 -0.00011720288 1.1158114e-05)
(0.014281963 -0.00015441996 9.9959052e-06)
(0.0085465899 -5.6327032e-05 3.1786591e-06)
(0.027079132 0.00021370303 7.1242115e-05)
(0.042267461 0.00052726412 0.00013510933)
(0.050532312 0.00045331046 0.00014322594)
(0.053784871 0.00018926328 0.0001177994)
(0.053800651 -0.00012111513 0.00011775134)
(0.050577117 -0.00039861063 0.0001429517)
(0.042328978 -0.00049623837 0.00013478134)
(0.027131546 -0.00020877825 7.0628486e-05)
(0.046730329 0.00043483493 0.00021975054)
(0.069514649 0.00092894756 0.00037582448)
(0.081857376 0.00080516023 0.00039139673)
(0.086676248 0.00033674971 0.00032839054)
(0.086698719 -0.00023624651 0.00032819492)
(0.081922011 -0.00072299279 0.00039070424)
(0.069605859 -0.00087940514 0.00037494167)
(0.046812316 -0.00042350732 0.00021806583)
(0.067193928 0.00072689627 0.0004556717)
(0.09592563 0.0013733363 0.00072583838)
(0.11136135 0.0011892228 0.00074491492)
(0.11731993 0.00049568563 0.00063378393)
(0.11734679 -0.00037089267 0.00063335961)
(0.1114396 -0.0010853856 0.0007436303)
(0.09603905 -0.0013071796 0.00072422026)
(0.067300977 -0.00070743938 0.00045255087)
(0.088177611 0.0010909726 0.00077775666)
(0.12143057 0.0018571882 0.001168789)
(0.13904164 0.0015981381 0.0011835306)
(0.14574025 0.0006620152 0.0010189631)
(0.14576964 -0.00051965317 0.0010182583)
(0.13912831 -0.00147769 0.001181515)
(0.12155954 -0.0017765148 0.0011663218)
(0.088305004 -0.0010622463 0.00077297755)
(0.10938187 0.0015252578 0.0011821728)
(0.14597391 0.0023719508 0.0016872696)
(0.16489314 0.0020223183 0.0016872728)
(0.17196322 0.00083111076 0.0014686433)
(0.17199365 -0.00067661356 0.0014676335)
(0.16498396 -0.0018895288 0.0016844359)
(0.14611259 -0.0022789048 0.0016839002)
(0.10952493 -0.0014866045 0.0011756134)
(0.13049746 0.0020226426 0.0016609708)
(0.16952959 0.0029044304 0.0022621272)
(0.18890869 0.0024507727 0.0022355952)
(0.19601918 0.00099805876 0.0019669988)
(0.19604952 -0.00083571276 0.0019656818)
(0.18900022 -0.002309142 0.0022318993)
(0.16967296 -0.0028010908 0.0022578721)
(0.13065174 -0.0019738569 0.0016526139)
(0.15120234 0.0025592882 0.0021900262)
(0.19212527 0.0034427001 0.0028835201)
(0.21107534 0.0028720517 0.0028109716)
(0.21794509 0.0011580927 0.0025030825)
(0.21797449 -0.00099122516 0.0025014734)
(0.2111649 -0.0027243866 0.0028064351)
(0.19226894 -0.0033309 0.0028784231)
(0.15136372 -0.0025008298 0.002180383)
(0.0082750457 4.3593061e-05 2.4302869e-06)
(0.013900781 0.00012639518 7.3580182e-06)
(0.017061636 0.0001115573 8.7150206e-06)
(0.018374323 5.2004162e-05 7.0103338e-06)
(0.018384138 -1.4158571e-05 7.0188013e-06)
(0.017088686 -8.2302783e-05 8.6331569e-06)
(0.01393639 -0.00011186186 7.2695155e-06)
(0.0083028674 -4.2375316e-05 2.3130435e-06)
(0.026297171 0.00015955658 5.2471041e-05)
(0.041248696 0.0003968549 0.00010069541)
(0.049650046 0.00035576919 0.0001113286)
(0.053129497 0.00016437513 9.5568602e-05)
(0.05315401 -6.6587262e-05 9.5413306e-05)
(0.049718665 -0.00027858526 0.00011059302)
(0.041341926 -0.00035532126 9.9439301e-05)
(0.026375416 -0.00015324214 5.0782363e-05)
(0.045413579 0.00032111891 0.00016153214)
(0.067901998 0.00069262333 0.00028104605)
(0.080509552 0.00062122291 0.00030435334)
(0.085703148 0.00028332226 0.00026523621)
(0.085738113 -0.00013929519 0.00026473778)
(0.080608678 -0.0005052316 0.00030252473)
(0.068040272 -0.00062586207 0.00027787651)
(0.045536196 -0.0003065636 0.0001570169)
(0.065353522 0.00053293082 0.00033475233)
(0.093797432 0.001017022 0.0005443073)
(0.10965045 0.00090687148 0.00057976354)
(0.11612796 0.00040757923 0.00051049661)
(0.11616981 -0.00022905932 0.00050950686)
(0.10977055 -0.00076032291 0.00057649728)
(0.093969283 -0.00092739032 0.00053875284)
(0.065513688 -0.0005077595 0.00032653909)
(0.085843318 0.00079632709 0.00057155607)
(0.11887744 0.0013693435 0.00087898059)
(0.13707842 0.0012095646 0.00092235635)
(0.14443454 0.00053543999 0.00081926759)
(0.14448037 -0.0003322302 0.00081770352)
(0.13721149 -0.0010397042 0.00091745315)
(0.11907262 -0.0012595672 0.00087085863)
(0.0860338 -0.00075891871 0.00055919497)
(0.10660376 0.0011110308 0.0008697803)
(0.14309894 0.0017453021 0.0012729288)
(0.162796 0.0015244812 0.0013173266)
(0.17065363 0.00066468087 0.001179657)
(0.17070114 -0.00044471028 0.001177492)
(0.16293546 -0.0013374557 0.0013107204)
(0.14330851 -0.0016182593 0.0012622834)
(0.10681736 -0.0010603902 0.00085314411)
(0.12734712 0.0014734041 0.0012246308)
(0.16644738 0.0021372998 0.0017129673)
(0.1868022 0.0018454874 0.0017495905)
(0.19481815 0.00079265657 0.0015796)
(0.19486557 -0.00056217605 0.0015768516)
(0.18694278 -0.0016463559 0.0017413311)
(0.16666363 -0.0019958573 0.0017000458)
(0.12757698 -0.0014091482 0.0012038866)
(0.14777321 0.0018680458 0.0016206085)
(0.18895937 0.0025383996 0.0021935747)
(0.2090883 0.0021655793 0.0022062731)
(0.21696508 0.00091651766 0.0020102044)
(0.21701106 -0.00068037087 0.0020069286)
(0.20922588 -0.0019584048 0.0021965273)
(0.18917573 -0.0023851426 0.0021787688)
(0.14801302 -0.0017907378 0.0015968887)
(0.0080764021 3.4929496e-05 2.2972793e-06)
(0.013620316 0.00010475977 5.7719154e-06)
(0.016801122 0.00010251238 7.1064557e-06)
(0.018166881 5.6117381e-05 6.0320982e-06)
(0.018182413 -8.7690048e-07 6.0216926e-06)
(0.016843942 -6.0342155e-05 6.901771e-06)
(0.013677778 -8.4619082e-05 5.4646655e-06)
(0.0081214866 -3.3422473e-05 1.7867459e-06)
(0.025687794 0.00012510184 4.3533247e-05)
(0.040451965 0.00032326207 7.9716364e-05)
(0.048936135 0.00031308942 9.0422135e-05)
(0.052574253 0.00016601653 8.0969793e-05)
(0.05261314 -2.3417677e-05 8.0473306e-05)
(0.049045107 -0.00020177435 8.8390377e-05)
(0.040600011 -0.00026497579 7.5519516e-05)
(0.025813042 -0.00011728146 3.8718418e-05)
(0.044393266 0.0002495695 0.00013153994)
(0.066642774 0.00055703646 0.00022244519)
(0.079416968 0.00053113588 0.00024705028)
(0.084874084 0.00027362159 0.00022366637)
(0.084929548 -6.3982475e-05 0.00022228334)
(0.079574045 -0.00036421466 0.00024212196)
(0.066860932 -0.00046368546 0.00021278114)
(0.04458889 -0.00023168433 0.00011951739)
(0.063934023 0.00041147233 0.00026944169)
(0.092136701 0.00080874715 0.00043070313)
(0.10825921 0.00075747254 0.00047056802)
(0.11510402 0.00037935979 0.00042910226)
(0.11517035 -0.00012016546 0.00042655394)
(0.10844893 -0.00054712938 0.00046211516)
(0.092406375 -0.00068387408 0.0004146845)
(0.064188383 -0.00038030695 0.00024816478)
(0.084049242 0.00061162436 0.00045611039)
(0.11688423 0.0010784915 0.00069550385)
(0.13547432 0.00099154638 0.00074880404)
(0.14329943 0.00048334516 0.00068687199)
(0.14337196 -0.00018920466 0.00068304265)
(0.13568378 -0.00074844722 0.00073661507)
(0.11718887 -0.00092595847 0.00067298534)
(0.084349893 -0.0005648572 0.00042473283)
(0.10447352 0.00085000033 0.00068960022)
(0.14085067 0.0013640244 0.0010075538)
(0.16107046 0.0012316329 0.0010700091)
(0.16949502 0.00058525701 0.00098696163)
(0.16957006 -0.00026798181 0.00098186077)
(0.16128916 -0.00096481036 0.0010541806)
(0.14117593 -0.0011878319 0.00097894295)
(0.1048082 -0.00078609085 0.00064819968)
(0.12493377 0.0011243661 0.00096636228)
(0.16402951 0.0016608202 0.0013569929)
(0.18505167 0.0014749391 0.0014223513)
(0.19372638 0.00068430723 0.0013193885)
(0.19380111 -0.00035319113 0.0013131175)
(0.1852713 -0.0011918156 0.0014032195)
(0.16436322 -0.0014649685 0.0013231734)
(0.12529104 -0.001042578 0.00091575231)
(0.14514495 0.0014238576 0.0012752546)
(0.18646415 0.0019649355 0.0017406468)
(0.20741318 0.0017177654 0.0017960132)
(0.21603154 0.00077931017 0.0016765551)
(0.21610386 -0.00044152797 0.0016693024)
(0.20762734 -0.0014242779 0.0017741501)
(0.18679609 -0.0017530589 0.0017028899)
(0.14551448 -0.0013248382 0.0012180822)
(0.0079004059 3.0502322e-05 2.9813233e-06)
(0.013379753 9.7591745e-05 5.1308255e-06)
(0.016578652 0.00010664407 6.124984e-06)
(0.017987536 6.8642324e-05 5.3621484e-06)
(0.018013099 1.4385933e-05 5.1974206e-06)
(0.016649441 -3.8274769e-05 5.6219454e-06)
(0.013487212 -6.3178795e-05 4.0321797e-06)
(0.0079799673 -3.1318798e-05 4.4649867e-07)
(0.025155575 0.00010526948 4.3471491e-05)
(0.039775325 0.00029391436 6.9064196e-05)
(0.048328257 0.00031087402 7.6960642e-05)
(0.052092927 0.00019202557 7.0641209e-05)
(0.052156895 2.252913e-05 6.8861392e-05)
(0.048506132 -0.00012576325 6.9295212e-05)
(0.040025547 -0.00014633979 5.8540912e-05)
(0.025375719 -5.0173459e-05 3.0778791e-05)
(0.043513552 0.00020858698 0.00012697529)
(0.065581109 0.00049657962 0.00019097623)
(0.078487911 0.00050914948 0.00020969932)
(0.084152433 0.00030297005 0.00019424523)
(0.084243441 1.0889797e-05 0.00018979219)
(0.078742624 -0.00024772201 0.00019180355)
(0.065941388 -0.00031423617 0.0001652344)
(0.043853517 -0.00015198995 0.00010015293)
(0.062724979 0.00034179825 0.00025328134)
(0.090745245 0.00070714574 0.00036712239)
(0.1070764 0.00070359308 0.0003987316)
(0.11420722 0.00040342177 0.00037153712)
(0.11431565 -1.733895e-05 0.00036417407)
(0.10738231 -0.00038331079 0.0003716716)
(0.091184977 -0.00049213101 0.00032584052)
(0.06316119 -0.00027492165 0.00020398925)