/*--------------------------------*- C++ -*----------------------------------*\
  =========                 |
  \\      /  F ield         | OpenFOAM: The Open Source CFD Toolbox
   \\    /   O peration     | Website:  https://openfoam.org
    \\  /    A nd           | Version:  13
     \\/     M anipulation  |
\*---------------------------------------------------------------------------*/
FoamFile
{
    format      ascii;
    class       surfaceScalarField;
    location    "0.04";
    object      alphaPhi.water;
}
// * * * * * * * * * * * * * * * * * * * * * * * * * * * * * * * * * * * * * //

dimensions      [0 3 -1 0 0 0 0];

internalField   nonuniform List<scalar> 
150720
(
0
0
0
0
0
0
0
0
0
0
0
0
0
0
0
0
0
0
0
0
0
0
0
0
0
0
0
0
0
0
0
0
0
0
0
0
0
0
0
0
0
0
0
0
0
0
0
0
0
0
0
0
0
0
0
0
0
0
0
0
0
0
0
0
0
0
0
0
0
0
0
0
0
0
0
0
0
0
0
0
0
0
0
0
0
0
0
0
0
0
0
0
0
0
0
0
0
0
0
0
0
0
0
0
0
0
0
0
0
0
0
0
0
0
0
0
0
0
0
0
0
0
0
0
0
0
0
0
0
0
0
0
0
0
0
0
0
0
0
0
0
0
0
0
0
0
0
0
0
0
0
0
0
0
0
0
0
0
0
0
0
0
0
0
0
0
0
0
0
0
0
0
0
0
0
0
0
0
0
0
0
0
0
0
0
0
0
0
0
0
0
0
0
0
0
0
0
0
0
0
0
0
0
0
0
0
0
0
0
0
0
0
0
0
0
0
0
0
0
0
0
0
0
0
0
0
0
0
0
0
0
0
0
0
0
0
0
0
0
0
0
0
0
0
0
0
0
0
0
0
0
0
0
0
0
0
0
0
0
0
0
0
0
0
0
0
0
0
0
0
0
0
0
0
0
0
0
0
0
0
0
0
0
0
0
0
0
0
0
0
0
0
0
0
0
0
0
0
0
0
0
0
0
0
0
0
0
0
0
0
0
0
0
0
0
0
0
0
0
0
0
0
0
0
0
0
0
0
0
0
0
0
0
0
0
0
0
0
0
0
0
0
0
0
0
0
0
0
0
0
0
0
0
0
0
0
0
0
0
0
0
0
0
0
0
0
0
0
0
0
0
0
0
0
0
0
0
0
0
0
0
0
0
0
0
0
0
0
0
0
0
0
0
0
0
0
0
0
0
0
0
0
0
0
0
0
0
0
0
0
0
0
0
0
0
0
0
0
0
0
0
0
0
0
0
0
0
0
0
0
0
0
0
0
0
0
0
0
0
0
0
0
0
0
0
0
0
0
0
0
0
0
0
0
0
0
0
0
0
0
0
0
0
0
0
0
0
0
0
0
0
0
0
0
0
0
0
0
0
0
0
0
0
0
0
0
0
0
0
0
0
0
0
0
0
0
0
0
0
0
0
0
0
0
0
0
0
0
0
0
0
0
0
0
0
0
0
0
0
0
0
0
0
0
0
0
0
0
0
0
0
0
0
0
0
0
0
0
0
0
0
0
0
0
0
0
0
0
0
0
0
0
0
0
0
0
0
0
0
0
0
0
0
0
0
0
0
0
0
0
0
0
0
0
0
0
0
0
0
0
0
0
0
0
0
0
0
0
0
0
0
0
0
0
0
0
0
0
0
0
0
0
0
0
0
0
0
0
0
0
0
0
0
0
0
0
0
0
0
0
0
0
0
0
0
0
0
0
0
0
0
0
0
0
0
0
0
0
0
0
0
0
0
0
0
0
0
0
0
0
0
0
0
0
0
0
0
0
0
0
0
0
0
0
0
0
0
0
0
0
0
0
0
0
0
0
0
0
0
0
0
0
0
0
0
0
0
0
0
0
0
0
0
0
0
0
0
0
0
0
0
0
0
0
0
0
0
0
0
0
0
0
0
0
0
0
0
0
0
0
0
0
0
0
0
0
0
0
0
0
0
0
0
0
0
0
0
0
0
0
0
0
0
0
0
0
0
0
0
0
0
0
0
0
0
0
0
0
0
0
0
0
0
0
0
0
0
0
0
0
0
0
0
0
0
0
0
0
0
0
0
0
0
0
0
0
0
0
0
0
0
0
0
0
0
0
0
0
0
0
0
0
0
0
0
0
0
0
0
0
0
0
0
0
0
0
0
0
0
0
0
0
0
0
0
0
0
0
0
0
0
0
0
0
0
0
0
0
0
0
0
0
0
0
0
0
0
0
0
0
0
0
0
0
0
0
0
0
0
0
0
0
0
0
0
0
0
0
0
0
0
0
0
0
0
0
0
0
0
0
0
0
0
0
0
0
0
0
0
0
0
0
0
0
0
0
0
0
0
0
0
0
0
0
0
0
0
0
0
0
0
0
0
0
0
0
0
0
0
0
0
0
0
0
0
0
0
0
0
0
0
0
0
0
0
0
0
0
0
0
0
0
0
0
0
0
0
0
0
0
0
0
0
0
0
0
0
0
0
0
0
0
0
0
0
0
0
0
0
0
0
0
0
0
0
0
0
0
0
0
0
0
0
0
0
0
0
0
0
0
0
0
0
0
0
0
0
0
0
0
0
0
0
0
0
0
0
0
0
0
0
0
0
0
0
0
0
0
0
0
0
0
0
0
0
0
0
0
0
0
0
0
0
0
0
0
0
0
0
0
0
0
0
0
0
0
0
0
0
0
0
0
0
0
0
0
0
0
0
0
0
0
0
0
0
0
0
0
0
0
0
0
0
0
0
0
0
0
0
0
0
0
0
0
0
0
0
0
0
0
0
0
0
0
0
0
0
0
0
0
0
0
0
0
0
0
0
0
0
0
0
0
0
0
0
0
0
0
0
0
0
0
0
0
0
0
0
0
0
0
0
0
0
0
0
0
0
0
0
0
0
0
0
0
0
0
0
0
0
0
0
0
0
0
0
0
0
0
0
0
0
0
0
0
0
0
0
0
0
0
0
0
0
0
0
0
0
0
0
0
0
0
0
0
0
0
0
0
0
0
0
0
0
0
0
0
0
0
0
0
0
0
0
0
0
0
0
0
0
0
0
0
0
0
0
0
0
0
0
0
0
0
0
0
0
0
0
0
0
0
0
0
0
0
0
0
0
0
0
0
0
0
0
0
0
0
0
0
0
0
0
0
0
0
0
0
0
0
0
0
0
0
0
0
0
0
0
0
0
0
0
0
0
0
0
0
0
0
0
0
0
0
0
0
0
0
0
0
0
0
0
0
0
0
0
0
0
0
0
0
0
0
0
0
0
0
0
0
0
0
0
0
0
0
0
0
0
0
0
0
0
0
0
0
0
0
0
0
0
0
0
0
0
0
0
0
0
0
0
0
0
0
0
0
0
0
0
0
0
0
0
0
0
0
0
0
0
0
0
0
0
0
0
0
0
0
0
0
0
0
0
0
0
0
0
0
0
0
0
0
0
0
0
0
0
0
0
0
0
0
0
0
0
0
0
0
0
0
0
0
0
0
0
0
0
0
0
0
0
0
0
0
0
0
0
0
0
0
0
0
0
0
0
0
0
0
0
0
0
0
0
0
0
0
0
0
0
0
0
0
0
0
0
0
0
0
0
0
0
0
0
0
0
0
0
0
0
0
0
0
0
0
0
0
0
0
0
0
0
0
0
0
0
0
0
0
0
0
0
0
0
0
0
0
0
0
0
0
0
0
0
0
0
0
0
0
0
0
0
0
0
0
0
0
0
0
0
0
0
0
0
0
0
0
0
0
0
0
0
0
0
0
0
0
0
0
0
0
0
0
0
0
0
0
0
0
0
0
0
0
0
0
0
0
0
0
0
0
0
0
0
0
0
0
0
0
0
0
0
0
0
0
0
0
0
0
0
0
0
0
0
0
0
0
0
0
0
0
0
0
0
0
0
0
0
0
0
0
0
0
0
0
0
0
0
0
0
0
0
0
2.9095539e-38
5.2875725e-38
5.3554711e-36
3.8487126e-40
1.3913093e-43
4.0963782e-43
2.9094991e-38
4.2376546e-49
2.0657584e-48
1.3912844e-43
3.1822815e-55
5.0224617e-54
4.2376012e-49
-7.2944341e-51
8.6921097e-56
7.2946654e-51
-9.3135614e-48
6.1579325e-48
3.1483345e-48
-1.4768365e-42
4.9653816e-43
9.8028901e-43
2.2934347e-38
1.2263387e-37
7.7255751e-40
5.7013812e-43
1.5854713e-42
5.2873557e-38
1.2427031e-44
1.4327804e-47
2.6268633e-47
9.7973534e-43
1.6461794e-52
9.1357434e-52
1.6392484e-47
3.5508624e-58
6.2487412e-57
1.6963379e-52
-2.4068749e-48
1.1013613e-52
2.4067648e-48
-8.0281936e-46
2.2606063e-47
7.8396436e-46
-6.2780991e-41
1.8254116e-42
6.1451314e-41
1.0229972e-37
3.7034647e-36
-5.8229428e-37
4.8385214e-45
1.9474036e-44
4.8386449e-43
-2.8354818e-56
3.1234683e-35
2.593637e-34
1.0001834e-32
4.4759615e-40
4.5276719e-39
3.1229708e-35
1.7843425e-45
5.4730114e-44
4.4753963e-40
-5.7040966e-50
9.0165405e-50
1.7843109e-45
-1.1303196e-47
5.9558001e-49
3.3256638e-47
-8.3639112e-43
2.8404509e-44
2.6333869e-42
2.7653064e-40
5.6265689e-38
-1.113024e-40
7.0809844e-49
2.5063845e-48
1.9470821e-44
-6.696183e-59
2.5306461e-34
1.4338986e-33
5.1843407e-32
3.943761e-37
6.2186724e-35
1.9930822e-33
1.3718972e-41
9.4284167e-38
3.0007848e-37
-1.8891971e-53
4.530565e-45
1.3714442e-41
-1.5056833e-48
4.1892638e-52
2.1008295e-48
-2.3216286e-44
1.0098001e-47
5.1609191e-44
1.3239989e-43
2.7768629e-40
-1.3112631e-42
1.3876314e-50
5.1166122e-52
2.4919965e-48
-2.4083327e-62
3.0628866e-35
1.8394861e-35
6.042518e-33
4.8547112e-36
9.1189107e-35
1.5889069e-33
1.3133554e-40
1.5374184e-37
6.5409935e-36
-3.6749943e-55
3.7864656e-43
1.3096143e-40
-1.5697191e-50
4.7755198e-54
1.6109899e-50
-3.9366589e-46
1.1894788e-49
4.0362924e-46
2.7684715e-45
4.6441849e-44
-1.1698688e-45
5.1279209e-53
7.5658656e-56
4.6030604e-52
-9.6949847e-66
3.6135092e-37
9.420269e-39
3.8054846e-35
7.6449273e-37
3.6974037e-37
1.412305e-34
2.8628387e-42
1.2507147e-38
1.0620483e-36
-2.9144112e-58
8.2486906e-44
3.153945e-42
-1.06416e-53
6.217001e-57
1.5357669e-53
-9.6674257e-50
8.7813996e-53
2.155185e-49
7.9488071e-49
2.7679543e-45
-3.7435645e-49
5.7686862e-56
6.043162e-59
1.7911135e-56
-2.4146849e-69
9.994573e-41
5.8747649e-42
9.3144489e-39
1.2312697e-39
1.1124622e-40
3.2236671e-37
1.9465626e-43
2.8948692e-42
1.2589975e-38
-2.8463643e-61
7.2449574e-45
2.3217053e-43
-7.3499087e-57
7.0353286e-60
1.3518592e-56
-3.3528236e-53
3.2150445e-56
1.2126559e-52
1.5575218e-52
7.9469613e-49
-1.5928626e-52
1.8166231e-59
4.223246e-59
-2.9417844e-72
3.1209358e-62
6.2974719e-44
5.6398903e-42
1.7190125e-43
4.4141289e-43
1.0796812e-40
2.8996598e-42
3.7780653e-47
3.2467596e-42
7.4310439e-44
-1.3716775e-61
6.038527e-45
1.3864513e-46
-5.7576791e-60
1.1381676e-59
7.3597963e-63
-7.6753006e-57
3.9763065e-56
5.2249444e-59
1.5512283e-52
-4.3175505e-56
1.565629e-55
5.0991092e-29
4.9545838e-29
2.9272651e-27
3.4153773e-30
1.148467e-27
1.385011e-27
1.3927104e-25
1.108703e-24
2.5343903e-24
2.8985214e-22
9.6386771e-24
8.3157052e-23
1.2836076e-20
-5.0954177e-48
1.9005741e-24
2.6270931e-22
-1.9527513e-48
1.0445685e-52
6.6073793e-51
-2.6453194e-43
8.5166996e-48
1.2448105e-42
4.6361971e-43
1.2263313e-37
8.6569652e-45
3.854169e-34
1.1076714e-33
4.9544293e-29
5.1946006e-35
7.3998893e-28
1.3174952e-27
1.0521038e-25
1.3358699e-25
1.2917549e-26
3.3225068e-23
2.8610382e-25
5.6906243e-26
3.9725637e-22
-7.9841457e-51
6.1036871e-26
7.1819306e-23
-5.0779056e-46
5.0607994e-50
1.2916974e-45
-2.2783232e-41
2.766199e-45
8.4231281e-41
6.5853959e-41
3.7038844e-36
-5.0782269e-40
5.5858596e-26
2.3185905e-25
7.6407593e-24
6.6931334e-27
9.2422336e-29
1.3481461e-27
8.1776869e-26
4.4900993e-29
1.5240348e-29
4.158129e-26
7.6883011e-30
1.4358429e-28
5.6799872e-26
-2.6736729e-44
1.6219146e-29
3.0402043e-25
-4.2323395e-40
2.0646166e-42
4.2114264e-40
-3.7507e-35
1.4639914e-39
3.7505115e-35
2.078402e-34
3.7558544e-30
-3.7560997e-30
2.2685441e-27
8.530099e-28
5.2026669e-25
3.4225019e-28
4.3360814e-31
2.5545823e-30
3.3837883e-27
7.5423814e-33
2.3295312e-33
1.5666278e-29
7.4832461e-34
1.039365e-32
1.4358069e-28
-1.8139171e-31
9.9820935e-32
1.6301465e-29
-1.1098762e-32
3.5079232e-30
2.0129289e-28
-1.5129884e-32
9.0121816e-32
3.556651e-30
3.7918066e-30
1.6004347e-28
-1.6758829e-30
4.451118e-32
0
1.6524317e-27
3.3894868e-31
3.6946476e-34
0
2.6639482e-30
1.4875278e-36
5.8922686e-36
4.2815511e-33
9.7581687e-37
8.305647e-35
1.0318566e-32
-1.769758e-32
2.136993e-31
1.6041526e-29
-6.3140167e-31
3.8961109e-31
4.0253364e-29
-3.365722e-28
1.3785165e-28
5.4970606e-27
2.4167245e-27
6.0609807e-26
-4.1296772e-30
4.7831638e-35
1.8209348e-34
1.2624701e-30
8.032645e-35
1.5410962e-36
0
1.4806884e-32
8.4362194e-37
7.7722782e-36
2.0879541e-34
2.4036746e-33
8.570301e-32
4.0903029e-30
-3.9631853e-33
1.0846012e-32
2.9025765e-30
-1.150719e-30
1.0303588e-31
4.197949e-30
-1.7898012e-29
1.3651512e-29
9.5944414e-28
5.5898187e-30
5.0256061e-27
-4.0961735e-31
5.1617817e-38
1.5762665e-36
1.8053893e-34
-7.3332587e-38
1.8439971e-37
1.4719078e-37
3.4988137e-35
1.0092721e-36
3.3214628e-36
1.093498e-34
5.1180782e-34
4.582407e-33
8.854225e-31
-1.4426411e-34
4.7577861e-35
8.6909146e-32
-4.4701998e-32
1.1896233e-34
1.5122391e-31
-2.4539375e-32
3.3025214e-33
1.4369835e-29
1.3043279e-33
7.6437008e-30
-3.1639361e-33
4.1879953e-37
1.180084e-34
-6.3038937e-39
3.3613266e-36
2.2422765e-38
5.3196477e-36
1.2698021e-37
7.7228818e-37
1.0534535e-34
2.6244099e-36
1.1637848e-35
2.0504871e-32
3.8414246e-34
-3.8585455e-37
2.1320479e-34
3.7934877e-36
-1.0433679e-35
1.8750558e-34
3.7201275e-36
-4.2114707e-36
3.2260928e-33
7.0206401e-35
1.2748944e-33
-6.1164211e-37
2.5833622e-35
0
9.9168291e-31
4.9671772e-29
2.0601562e-31
6.144479e-26
1.2633847e-25
3.4246628e-24
2.342916e-23
4.6036083e-23
5.1625918e-21
1.6612038e-22
7.4326171e-22
7.7194315e-20
2.0976652e-24
6.9948711e-24
8.2773996e-22
-6.4261392e-20
1.1459845e-23
6.4252029e-20
-2.6798932e-19
7.3412517e-19
1.2917864e-16
1.5064243e-21
1.026308e-18
-5.0551087e-37
0
1.4640613e-22
1.8211125e-20
1.5099563e-22
1.3778885e-25
4.8179737e-25
4.8512718e-23
4.6328931e-24
1.0488365e-23
1.2489231e-21
2.1753724e-23
8.6864362e-24
1.8136868e-20
3.4943239e-24
6.4909196e-25
4.696869e-22
0
1.0263862e-22
1.6156393e-20
2.3711384e-21
0
3.6447072e-17
4.1556664e-21
1.3799202e-18
3.5531103e-23
5.45831e-28
6.3696091e-27
1.2631874e-25
1.5391397e-22
1.2655998e-25
1.4454242e-25
2.2548913e-23
3.515553e-24
1.9120953e-23
9.6348273e-22
7.0337627e-25
9.6385133e-25
1.1776188e-21
1.2141077e-26
7.0869172e-27
1.6796065e-23
-1.1271844e-24
4.1301212e-26
3.8352001e-22
-7.4073432e-26
1.3086134e-25
3.8215893e-21
1.512819e-28
4.1555921e-21
0
1.8108303e-29
1.1704319e-28
5.2600564e-25
8.5322553e-30
3.3053052e-27
1.8458267e-28
5.9285313e-25
1.5801936e-25
1.7159839e-26
4.7385982e-23
9.3797915e-26
7.0240064e-26
9.9427273e-23
3.3814958e-28
4.1070031e-28
8.6841888e-25
-1.5015321e-28
7.7036506e-30
6.0888251e-25
-5.29039e-31
1.6459415e-28
1.3055435e-25
2.586337e-28
7.4367676e-28
-5.2602496e-28
5.4791636e-28
4.2098158e-27
2.2311651e-25
2.4759625e-28
1.4689074e-29
6.9263999e-30
5.1659783e-27
8.4181917e-28
4.5092583e-29
2.6283449e-25
5.8511833e-28
0
6.6858171e-25
7.4415953e-31
1.179504e-30
8.0430039e-27
-1.2492729e-29
1.5866424e-30
8.6512447e-27
-4.7054705e-29
2.9375483e-28
1.7001625e-26
1.130016e-27
4.8961294e-26
-2.3262563e-29
1.6442997e-29
1.3478598e-27
1.1464052e-25
1.0888545e-28
1.2811191e-30
2.0433494e-30
4.3616551e-28
9.0686214e-30
6.7635093e-31
4.2538494e-27
9.6634678e-32
1.3022095e-31
4.1095185e-28
-1.619593e-32
2.2172043e-32
9.4379909e-29
-3.3417908e-31
1.0968186e-31
1.4350026e-28
-5.89174e-30
3.9027729e-30
1.0452388e-27
3.3048515e-29
1.1759078e-26
-6.650115e-30
1.2249818e-30
1.6155896e-29
9.1133711e-27
7.0932132e-30
2.7297506e-32
1.2742708e-31
3.0970295e-29
2.2880808e-32
1.6460214e-33
1.0123746e-29
9.2047934e-33
6.8895692e-33
1.0935017e-29
-5.7685839e-34
2.5814469e-34
1.2012214e-30
-9.9956049e-32
1.0262125e-32
6.136604e-30
-2.3680196e-31
8.0739561e-31
1.6277858e-28
1.5130259e-31
3.1616919e-28
-1.7894436e-31
7.443388e-33
3.8108571e-29
2.4231046e-32
8.4485922e-31
2.8103582e-35
4.0456691e-31
7.6368204e-33
4.385816e-36
1.775357e-33
2.8023317e-35
1.1951646e-34
1.3662795e-31
2.2335675e-33
-9.2495734e-36
7.2763977e-33
1.3785833e-34
-5.6177717e-32
3.7897214e-31
5.6011877e-33
-1.0486016e-32
3.3642195e-29
5.2766416e-31
5.8347176e-30
-3.5868698e-33
7.9109723e-32
2.5232281e-27
-7.9010973e-22
7.9008995e-22
1.4431552e-26
2.032614e-29
2.9137525e-29
3.4269831e-24
1.8187819e-23
6.2964589e-23
7.3432316e-21
3.2781197e-22
7.0448058e-22
1.787209e-19
6.4260402e-23
-1.5525499e-24
1.2182316e-21
0
-1.3098347e-25
3.9269591e-19
-1.0633184e-20
2.8780962e-18
1.7868855e-16
-2.7489104e-20
1.9287687e-18
-5.2750486e-21
0
3.4056721e-22
2.9407072e-19
-3.9214102e-19
2.3840509e-24
5.0216575e-24
7.7866224e-22
1.9323336e-23
1.3844026e-23
7.3376036e-21
1.2424908e-22
1.019286e-22
6.2936324e-20
4.0564029e-24
-9.0682239e-25
8.4641257e-22
0
-8.3560118e-27
1.6161122e-20
7.9976907e-21
0
3.1246589e-16
6.9669023e-21
1.3737417e-17
-2.6896313e-21
6.2923322e-25
8.4025276e-25
1.0485862e-22
0
3.2087646e-24
4.815905e-24
7.9363741e-22
3.2589441e-24
2.4864009e-24
8.4096543e-22
3.3387924e-23
3.6970562e-23
1.5636618e-20
2.6271222e-24
1.5004847e-24
5.2069819e-22
0
-1.482119e-28
3.864701e-22
0
6.5541011e-24
3.8613048e-19
1.9174114e-23
2.6653051e-18
-1.0870851e-22
6.961426e-23
2.2840747e-22
1.7049306e-20
0
3.12752e-25
7.7033557e-25
1.9494955e-22
1.9194195e-25
1.9374713e-25
1.065246e-22
3.2238961e-24
1.7369384e-24
2.5146564e-21
2.6832515e-25
8.1951597e-25
2.2226712e-22
3.6017628e-28
1.3724061e-27
1.1887486e-24
1.1216104e-28
2.444151e-26
6.8337686e-24
2.7477511e-26
1.9404275e-23
-2.5649611e-25
1.5370793e-24
1.7105068e-25
4.3715819e-22
-3.7825199e-28
9.2391725e-27
7.1420868e-28
3.5668702e-24
2.8174207e-26
2.4370304e-26
1.5381077e-23
2.3490876e-26
3.6408164e-29
2.1824599e-23
2.4733542e-26
4.4261687e-27
1.59922e-23
4.1046014e-28
3.0786441e-27
3.3134849e-25
-2.0471263e-26
1.0787038e-23
6.0959011e-22
1.551248e-24
2.8250983e-22
-7.2765395e-27
9.5447313e-28
1.9035669e-27
6.6572624e-24
-2.2446772e-25
7.6640686e-29
5.6414664e-30
2.9572006e-26
1.4116651e-27
6.1107656e-28
8.9140763e-25
2.3586169e-29
0
2.4065604e-26
1.0557032e-28
0
7.7010033e-26
1.113223e-29
1.6200007e-28
1.6540084e-26
-7.1764942e-28
2.9562455e-26
5.8277211e-23
2.5047785e-28
3.069598e-24
-1.1174079e-27
2.9677869e-30
6.8633927e-30
7.9603547e-26
-2.2797769e-28
1.059724e-30
6.7594121e-32
3.843134e-28
8.0848442e-30
4.7978801e-31
4.2201229e-27
7.2983818e-32
1.2103769e-33
7.5996888e-29
4.5927474e-31
2.4451731e-32
3.0950445e-28
4.7654059e-31
7.3157935e-30
5.975892e-28
-1.1236973e-29
7.3594744e-29
8.6170649e-25
2.2728771e-30
1.7996801e-26
-2.1087736e-29
5.7407479e-33
8.6825924e-29
-6.003708e-32
1.9962025e-30
1.4203728e-33
1.4691459e-30
2.3539564e-32
7.2294136e-34
4.7721083e-31
6.9466955e-33
3.342661e-34
4.6304313e-31
5.3107915e-33
2.5594541e-35
3.2110849e-32
3.5579612e-34
6.6825233e-33
1.9531224e-29
1.8715321e-31
-9.1308223e-32
1.5736409e-27
1.5771746e-29
1.9843052e-28
-1.3639222e-31
1.459371e-30
0
-9.9891958e-18
4.4690379e-16
2.253363e-16
0
-4.8987633e-19
1.1139151e-16
0
8.4599162e-23
8.1297007e-21
1.5807662e-21
-4.4968024e-25
2.2855121e-19
0
-4.4104925e-24
2.6828775e-21
-1.3025921e-17
8.817838e-16
6.5627873e-15
-2.2547696e-18
-1.6762462e-17
9.2281074e-17
-4.2720137e-19
1.0960156e-18
-3.5691034e-21
5.6412892e-19
-3.2312403e-20
3.1973863e-17
0
2.3982405e-21
-5.0452996e-22
2.5356759e-19
4.5593089e-22
5.5637809e-22
1.6594408e-19
2.1066714e-24
-7.1319672e-25
6.3274376e-20
0
-7.5089594e-24
7.360828e-22
2.9594634e-17
0
5.6650236e-15
-2.4523968e-18
-3.7981788e-18
3.3803508e-16
-4.1425377e-19
1.6676367e-17
-3.5801783e-20
7.2051489e-24
0
3.05146e-22
-3.2751183e-20
9.0956946e-23
3.6561958e-24
1.648439e-20
2.6341025e-25
5.9317239e-25
1.3714139e-21
1.2071355e-24
-2.1075768e-23
1.5544977e-20
0
-5.8283429e-24
4.0908911e-22
3.0583337e-18
1.003219e-19
4.6893437e-16
-3.6321183e-20
-9.7260753e-22
2.4672999e-17
-1.0328309e-22
3.5512886e-18
-1.3866818e-22
4.0666425e-22
2.3565392e-21
1.2372437e-19
-4.594049e-21
1.9383058e-23
4.01951e-24
4.2867184e-21
8.3978465e-24
3.8053312e-23
6.573783e-21
3.6176506e-23
1.1235739e-23
1.5449882e-20
7.5592611e-27
-1.4673621e-24
1.4808216e-22
9.7172214e-22
9.2919171e-24
9.93424e-20
1.3701198e-27
-1.7743872e-24
8.4323885e-24
-8.2863196e-23
4.8104997e-25
-8.4170351e-25
6.606865e-24
3.5774199e-24
3.1266608e-21
-1.0836356e-22
5.8527516e-25
2.3444101e-26
1.4120094e-22
1.625812e-24
3.2922774e-24
1.701438e-21
9.3331109e-25
1.9754392e-25
6.3400349e-22
1.1414705e-25
-1.0442708e-25
4.122011e-23
9.0528658e-26
4.6496097e-26
9.9029709e-24
1.8628214e-24
1.3438015e-24
6.074291e-22
-4.1187168e-24
8.5554956e-21
-8.7643458e-26
2.3028021e-26
2.3429175e-26
8.0548254e-23
-1.4351295e-24
1.3835483e-27
2.6070774e-31
4.1765954e-25
1.3907736e-26
1.1028188e-28
1.618744e-23
9.4825929e-28
4.8975292e-28
4.8639103e-25
5.4475721e-26
5.3674593e-27
6.720249e-24
1.5706696e-26
3.7589742e-26
1.7882915e-24
1.5204676e-24
3.889007e-24
1.2399339e-21
-1.9347205e-26
2.6356519e-22
-1.9953064e-26
6.0827794e-29
3.3560399e-29
9.1882156e-25
-1.957616e-26
7.3608437e-30
0
2.23005e-27
2.2297475e-29
6.2070936e-31
1.2875591e-26
1.5607158e-28
8.3978963e-29
9.1968476e-26
5.5442997e-27
1.107904e-27
9.5306798e-25
3.5929936e-27
3.4684076e-27
7.7654011e-25
2.9536638e-26
8.9498689e-28
1.1319912e-23
-1.2279607e-29
1.3704503e-26
-2.7508796e-29
1.9591416e-32
3.5029231e-28
-4.9112524e-30
6.8940058e-30
3.0845321e-33
3.3229567e-30
3.3644226e-32
1.1941542e-33
1.0946057e-30
1.0032459e-32
8.8396032e-31
6.6897049e-28
3.9112201e-30
3.3954441e-29
1.1117435e-26
7.4253135e-29
2.9281269e-29
8.3593242e-27
7.7594018e-29
1.8988601e-29
1.3365389e-26
6.3343979e-29
3.3565248e-27
-2.5538761e-30
-5.6316311e-31
0
0
1.0992881e-15
1.5445974e-16
8.0597657e-19
-9.862254e-19
1.3862385e-16
8.0702468e-19
-2.4754438e-22
9.0162313e-21
-8.3741927e-16
9.4740659e-18
8.7037681e-17
-5.2431629e-15
-3.4123766e-15
5.3434596e-14
-1.2089818e-16
-1.4194363e-15
4.2238838e-15
-2.1359323e-17
-7.3282299e-18
7.041163e-20
-5.4015026e-19
2.5425281e-16
8.0632285e-18
7.591953e-19
0
1.5772869e-16
0
4.7971629e-22
-1.6933079e-21
3.0572294e-20
1.7720596e-19
-3.1316856e-20
2.2920984e-20
1.7819504e-17
4.3477094e-18
5.1774852e-16
3.4945671e-17
-6.7672764e-21
1.7929324e-14
-5.0723483e-18
-4.8222251e-18
1.327168e-14
-2.4150398e-18
-1.1163814e-17
9.2332029e-17
-8.34604e-19
1.7603357e-17
-1.4520622e-19
1.8965982e-20
0
1.0814699e-18
0
5.5274898e-21
-5.3428614e-22
5.6897076e-20
-3.4940764e-20
-3.5729044e-21
2.7860724e-18
5.3921344e-19
0
6.3329868e-17
0
2.7759359e-23
5.3282713e-19
-1.4537509e-18
3.2363235e-18
4.5096725e-16
-4.5904808e-19
-2.4175558e-18
5.30529e-17
-3.6912336e-21
9.7659547e-19
-6.838616e-21
1.2101555e-21
3.0749814e-21
2.4267853e-19
-9.651206e-20
1.2055375e-22
-1.3049458e-23
2.7717641e-20
-2.471366e-22
-5.7365971e-23
1.7551296e-20
2.2536244e-22
5.163521e-22
1.6566344e-19
4.2683565e-26
4.7413932e-26
4.0137208e-22
0
0
3.3356673e-18
-1.3573115e-22
-1.468358e-21
6.7461992e-19
-3.3418705e-21
1.332079e-23
-4.9672339e-22
8.5139172e-24
7.5259331e-24
3.4494566e-21
0
2.716766e-24
-2.8944896e-26
4.8939763e-22
-1.6083577e-26
-6.6487583e-25
3.4927433e-21
1.8700998e-27
3.0492654e-26
1.150443e-21
6.3065063e-27
1.2614785e-26
4.143272e-23
3.2349621e-26
1.4929623e-26
1.4126057e-23
-4.6580163e-22
-3.9669642e-22
4.9185275e-24
-2.2033606e-22
1.042086e-19
-1.7062335e-23
2.5282531e-25
6.6641714e-25
4.7375963e-22
-1.0751837e-23
1.4530675e-26
-3.5588674e-29
2.3181054e-24
-7.8479415e-28
-1.5041321e-27
2.7295444e-23
-1.6918762e-28
1.4696383e-27
6.4432967e-25
3.4346611e-27
9.1302102e-27
6.8503319e-24
7.4687537e-26
2.9557959e-26
1.3485718e-24
-7.7083457e-24
-5.1839619e-24
1.547764e-20
-4.7537925e-28
3.0996219e-21
-1.5979644e-25
1.2317176e-27
2.9340725e-27
1.2732708e-23
-1.9431296e-24
2.2567696e-29
-2.3883267e-32
6.8479263e-27
-2.0359791e-28
1.0045378e-30
2.0150016e-26
-1.0579169e-27
1.9748533e-27
2.158228e-25
2.4859459e-26
5.6043758e-26
1.1112311e-24
2.9804971e-26
3.4568487e-26
1.5160554e-24
1.7249984e-27
-1.1214456e-26
2.0544768e-24
-8.4119977e-28
1.0050248e-26
-2.756474e-27
1.7110639e-31
1.6185671e-26
-5.8552669e-27
8.7721343e-29
2.3986707e-32
1.0890481e-29
1.0352184e-33
-7.639223e-30
1.1748701e-27
3.700529e-30
-1.4035107e-28
8.007169e-27
7.99281e-29
1.9248804e-27
9.7451109e-26
3.6886894e-27
2.0473068e-27
1.1368793e-25
1.819674e-27
9.1076656e-28
3.3685876e-25
-3.4177672e-30
3.5489189e-26
-1.4121861e-28
-1.5163667e-28
-6.4088183e-17
-1.3716652e-16
1.7930111e-15
5.8178331e-16
1.7747798e-20
0
1.9499195e-17
6.8638713e-21
-1.400371e-21
2.6036423e-20
9.030838e-17
-3.3294076e-18
6.9907336e-20
-7.4041833e-15
4.4287511e-14
4.0160109e-14
-4.1619688e-18
-3.7774069e-15
4.7232943e-15
-4.0695542e-18
-2.3768944e-20
1.6276662e-21
-3.7309536e-18
6.3859835e-17
0
0
0
1.2119314e-15
-1.5494195e-15
9.5512915e-20
0
5.8234203e-18
3.9536901e-19
-3.0060914e-19
2.5095118e-20
1.1755412e-16
9.2212233e-18
2.5546885e-16
-6.6136138e-15
2.1196785e-14
9.3736202e-14
-1.0261692e-16
-3.7466896e-16
1.0108853e-14
-1.2888991e-18
-9.2209351e-18
1.9319941e-19
-5.8865757e-19
1.3828962e-17
-5.7661878e-19
4.3218349e-24
3.7363643e-21
6.8210536e-18
-5.7272719e-18
1.5865903e-20
-4.2674734e-21
6.4251495e-20
2.7974243e-19
-5.0257783e-20
3.9559996e-18
2.6606808e-18
1.4612566e-18
3.3588304e-17
-5.3225712e-17
9.1134594e-15
8.1672844e-14
-4.3925864e-18
-3.5136958e-17
5.3138183e-17
-3.8632018e-19
-6.6016176e-19
3.114421e-17
-1.799859e-21
2.6822153e-21
-1.0205475e-22
5.9101323e-21
2.0964085e-21
1.9710695e-19
-3.2398985e-21
1.0428165e-21
-7.9877496e-23
7.5292192e-20
-2.2183386e-20
-5.5418712e-21
1.7939454e-19
-2.3837811e-19
2.8412798e-21
6.8864138e-18
2.0261825e-18
6.0409766e-17
9.0507855e-15
-1.4600739e-20
-2.9174368e-21
4.3539664e-16
-1.128384e-21
-1.6548281e-21
2.5694015e-21
-3.1704432e-20
6.0998767e-20
-5.0752722e-21
2.2920374e-22
2.8318685e-22
1.1466049e-19
-5.2359404e-20
2.7926019e-23
-2.0495645e-25
2.7319944e-21
-5.591276e-20
-2.9488578e-23
1.1143579e-19
-1.6945601e-21
1.0957775e-19
6.390121e-18
1.2945726e-20
1.259436e-19
6.0269224e-17
0
-8.9614715e-27
1.0042536e-20
-8.8892442e-21
-4.8130334e-21
1.201689e-20
-4.3826768e-21
5.3298318e-19
-1.1950372e-22
4.5105464e-25
1.0530104e-25
2.7091222e-21
-1.17129e-21
1.0312985e-26
-4.5641635e-28
2.5102974e-24
-1.9582485e-23
-7.3596734e-30
1.7399755e-23
-9.1069561e-24
2.8294852e-23
1.0953969e-19
3.295247e-23
2.5117746e-22
1.2565731e-19
5.1139289e-27
-5.9780591e-28
3.4260461e-23
-3.7091923e-22
-1.8556614e-24
6.5008598e-20
-2.8638091e-26
2.8789072e-20
-3.710477e-24
1.0774012e-27
-1.9207211e-26
2.598427e-23
-1.5594871e-23
3.13679e-29
-1.8277516e-28
2.4272096e-26
-6.2964519e-27
-2.7467026e-31
2.6475192e-26
-2.0509662e-26
2.6864082e-27
2.8522318e-23
3.6647174e-26
4.4543378e-25
2.5179341e-22
1.1158962e-27
1.0062946e-28
1.5217626e-24
-7.8345932e-29
-5.569382e-25
7.486193e-25
-1.6011252e-26
1.0414497e-26
-2.1570983e-26
5.663216e-28
3.2137615e-24
-8.6220772e-26
-5.183588e-26
-1.4211134e-33
1.0799747e-26
-2.7676504e-28
-3.156968e-30
1.1775588e-27
-1.6443052e-31
-1.6667249e-29
1.0704e-26
3.2730318e-30
1.2466269e-28
5.4581182e-25
5.616723e-28
2.5525142e-27
9.1535974e-26
1.3294728e-27
-1.7634043e-28
6.4262332e-24
-1.354737e-27
2.8317508e-25
-2.7099113e-27
-3.3118149e-27
-2.1616435e-17
-6.763293e-16
2.3367754e-15
0
0
0
2.730043e-16
4.4095708e-19
0
2.0938895e-18
6.3349063e-21
-2.2996532e-20
2.2828522e-20
-5.4176166e-15
4.3525472e-14
2.5598681e-14
-7.9426567e-22
-2.545108e-15
3.3679018e-15
-1.1843322e-21
-5.8051167e-22
1.6502718e-21
-7.1399704e-19
6.4572519e-17
-9.2921234e-24
0
-3.1582007e-17
5.0278943e-16
-4.7256312e-15
5.8573408e-19
-3.166255e-19
3.8221342e-17
2.7025127e-21
-2.4830942e-19
8.6012972e-19
2.5525621e-16
-2.0106561e-21
2.2861746e-19
-2.2803074e-15
8.4029645e-14
7.8444161e-14
-2.3435361e-18
-6.5290821e-16
8.128974e-15
-4.2439159e-19
-1.7318897e-18
3.6721008e-21
-7.7274112e-20
6.5484066e-18
0
2.9178814e-19
-1.1462822e-21
7.597866e-18
-3.2631125e-17
2.8231884e-21
-1.2398023e-20
6.812343e-20
1.203816e-19
-1.2846252e-19
2.1611048e-18
3.3628408e-17
-6.2213161e-23
1.0907386e-19
8.9061629e-16
5.6888472e-14
1.2968739e-13
-5.4928574e-18
-4.0539997e-16
1.6925122e-16
-2.0559409e-20
-2.681519e-22
1.8673038e-19
-3.3760167e-20
2.5205572e-22
-6.3380306e-20
5.9020784e-21
-1.0244065e-20
2.6995288e-19
0
1.2139087e-21
-9.9378116e-22
1.5343929e-19
5.812758e-21
-3.0447207e-20
4.8831195e-19
6.8528098e-18
4.9474566e-21
3.432257e-20
3.1568279e-15
1.0081587e-14
1.2795945e-13
-1.5567277e-20
-1.0154605e-16
3.9957553e-15
-1.0419526e-20
-2.9340366e-21
9.0432885e-23
-1.5242769e-19
1.9884705e-19
-5.9681237e-21
1.2309253e-21
-3.5469031e-22
3.6656602e-19
-4.3283232e-20
4.3221901e-23
-5.3185125e-24
2.1595217e-20
0
-9.8456141e-21
2.4988338e-19
-2.7975798e-17
4.2891239e-19
1.2030945e-17
2.421766e-16
3.1716709e-15
4.1609368e-14
0
-1.5676932e-17
5.8481067e-16
-4.356171e-20
-1.0941897e-19
1.4051149e-20
-3.4986311e-20
8.1188498e-19
-3.8787895e-22
2.1687265e-24
-5.6882587e-24
4.7365276e-21
0
-1.2924948e-23
-2.3673004e-23
2.1697603e-23
-9.0638954e-21
-1.3858649e-20
9.8929108e-20
-2.7043003e-19
3.480485e-20
1.9737016e-18
8.3199898e-19
1.9904368e-17
3.1507903e-15
6.1157122e-19
-2.5951459e-22
1.0325675e-16
-6.2430812e-21
-3.5221441e-20
6.6282532e-19
-3.6565078e-25
1.0695658e-19
-5.5011097e-26
5.3741457e-25
-2.1557178e-24
3.4885873e-23
-5.0904519e-24
-6.1163053e-22
-5.2973622e-24
8.715388e-22
-7.700767e-25
-6.8848122e-22
2.1338405e-19
-2.3200987e-21
1.3884211e-23
3.7138988e-20
7.7753048e-21
4.825647e-20
1.9846526e-17
0
2.2188948e-25
7.5170642e-21
-7.8819957e-27
-6.4240357e-24
7.0263488e-20
-2.2698142e-25
1.2539143e-26
-1.5700456e-25
3.5529857e-25
4.2005512e-23
-6.9761283e-24
-3.9482242e-24
-2.4510264e-23
7.4966786e-23
-2.7998396e-26
0
8.8457335e-21
-2.1579956e-24
-7.6875902e-24
2.1573457e-23
9.1580289e-27
2.0557242e-23
4.8068385e-20
1.6057901e-22
8.7209967e-27
2.0855779e-23
3.7613181e-27
-1.1865525e-26
1.5340454e-25
-2.119084e-26
1.7622798e-24
-3.3424361e-26
-4.1365437e-26
-6.0304469e-19
-2.2511511e-16
9.5783474e-16
0
-1.3057107e-18
-1.6919045e-17
3.784896e-16
9.8666201e-18
-8.7637354e-18
2.1982766e-18
4.2103173e-16
-4.0569646e-18
1.4337692e-15
-2.0465149e-15
1.7726025e-14
3.3895961e-14
-1.80331e-15
-9.6200518e-16
2.4774498e-15
-9.9159944e-16
-2.4540479e-21
8.7575694e-15
-4.0610685e-18
3.3969327e-14
0
-2.2014224e-18
-6.9274812e-19
7.6793355e-18
0
-2.0386915e-18
-1.4504453e-19
1.0948269e-16
1.700302e-17
-1.3806656e-17
2.1063069e-16
3.0971799e-16
1.7868766e-18
1.7977567e-16
-1.0270808e-15
3.793614e-14
8.2244869e-14
-1.6204863e-22
-9.4513203e-17
4.2042205e-15
1.1537376e-23
-4.8248551e-21
5.1537893e-23
-2.9336983e-23
2.4850404e-18
6.4642008e-22
-3.0122541e-21
-3.3804188e-20
6.0347832e-20
6.9039658e-18
-1.0703082e-19
-2.4432905e-20
7.256684e-20
2.3625982e-19
-4.6502205e-19
6.7613377e-18
2.1217138e-18
1.7429343e-22
1.027922e-20
-2.0735256e-16
7.2277978e-14
1.1735026e-13
-1.5646053e-19
-2.1709763e-16
6.3885979e-18
5.5458667e-22
-1.0346669e-23
2.0119089e-20
-1.467203e-20
1.2725807e-22
9.6743489e-21
-2.8236216e-21
-3.8389248e-20
3.634511e-19
1.3862044e-20
-3.7476796e-22
-1.0484661e-20
9.9688321e-20
2.6559383e-22
-1.1778423e-19
1.7491392e-20
2.8338158e-20
2.0748362e-22
6.09381e-21
-4.0431405e-16
8.9218276e-14
1.3227767e-13
-5.2275243e-22
-9.6859918e-17
1.7519613e-15
-3.4913137e-22
-1.3199605e-22
3.4698593e-23
-2.1045536e-19
2.1871886e-19
2.5333299e-21
-1.302236e-21
0
2.4572417e-19
1.4605052e-19
-9.2201533e-21
-4.2798836e-23
7.1802514e-20
0
-3.8493811e-20
7.7924501e-19
1.1709965e-17
2.5686475e-19
6.4242024e-20
2.0791235e-15
3.5535305e-14
1.728453e-13
-8.4422652e-20
-1.0502555e-16
5.4659382e-16
-3.965293e-20
-3.1259425e-20
4.1175974e-22
-3.8492295e-20
9.1301297e-19
0
-2.6474781e-25
-3.7437294e-23
1.8391938e-22
2.7957545e-21
-6.1933768e-23
-2.4798246e-23
5.330452e-23
0
-4.2881784e-20
2.3732914e-19
1.4152975e-18
1.8619157e-17
2.5686778e-16
1.8358417e-15
0
1.0431971e-13
0
-2.2940237e-17
1.2353868e-15
-9.3606821e-21
-2.5958378e-20
9.9117555e-20
-1.5219432e-24
2.1165687e-19
-1.4601754e-22
-6.9018959e-25
-3.8676406e-23
1.62402e-22
-1.17586e-24
0
-1.4549472e-23
9.5749566e-22
0
-1.3477289e-19
6.1240602e-19
-2.4083323e-17
7.4777891e-18
2.0392933e-16
9.3331025e-17
3.6855796e-17
6.1504902e-15
0
-5.8603271e-20
2.466453e-16
-2.6647344e-25
-1.5251021e-22
6.2304491e-20
-6.5147161e-25
2.2403822e-26
-1.1534678e-24
4.4844119e-26
2.5105667e-22
-9.0809709e-23
-5.1823663e-23
-2.9858946e-23
1.2854905e-22
-2.2658709e-24
-1.3184627e-18
8.3062801e-19
-1.039878e-21
-1.1431942e-19
3.0746174e-17
4.6327359e-20
5.7189698e-19
3.6115315e-17
1.0284372e-19
1.3884689e-22
5.1317792e-19
-1.9973647e-24
-5.8383518e-26
1.1183812e-24
-1.4364727e-23
3.7360399e-24
-8.8455362e-26
-2.2895749e-27
-1.6859008e-17
-2.7490806e-17
8.4308645e-16
9.1505294e-17
-1.2467835e-17
-4.2003342e-17
1.75709e-16
-1.4452289e-19
-4.1787721e-18
3.274342e-18
-3.9451963e-15
-1.3381051e-20
5.3792653e-15
4.6240552e-15
-4.2894265e-15
1.6071297e-14
1.2283257e-15
-4.6161739e-16
6.7397732e-16
1.9022877e-15
-4.1752947e-16
8.8060575e-15
2.4688654e-14
4.0365725e-14
-9.9309111e-15
-1.9688649e-17
-1.7946725e-19
6.4385291e-20
1.6588719e-22
-1.079847e-17
-2.0269014e-17
2.1139095e-16
0
-2.8326884e-17
2.1856444e-16
2.0768897e-18
-2.1249667e-22
1.7768557e-16
3.9329595e-15
-8.0558895e-15
5.2545743e-14
4.1878288e-16
-3.9365928e-16
5.3869651e-15
0
-2.5812473e-19
1.5107337e-18
6.869452e-15
6.4740911e-14
2.8595028e-15
-2.6991912e-21
-9.0997742e-20
1.5064835e-18
2.0924309e-19
-2.2670968e-18
-1.2994728e-19
3.892633e-18
0
-2.5197211e-19
4.4040168e-17
1.3832519e-21
1.3818003e-22
8.4171206e-21
-1.8383066e-15
-1.1138e-14
7.5839588e-14
2.6440242e-19
-7.9973272e-18
1.044893e-15
1.0892945e-21
-1.0711683e-23
2.5314277e-20
4.2487726e-17
6.8207005e-15
6.2737362e-18
0
-6.1591262e-20
2.9008983e-19
8.33896e-21
-4.3533577e-22
-3.7107496e-20
8.1064827e-21
1.3972793e-22
-2.435714e-19
8.3925718e-21
9.2035606e-22
4.5491304e-22
4.8734014e-21
-1.7404168e-15
3.2484241e-14
5.5090228e-14
-2.5300341e-24
-6.3971706e-19
4.1869104e-18
1.4844748e-24
-1.7374538e-23
3.3582872e-23
1.4732931e-20
4.2667877e-17
2.383192e-20
-7.6658573e-21
0
1.0486931e-19
3.8187943e-21
-3.1294764e-20
-2.2890723e-23
2.8049525e-19
1.1293257e-20