/*--------------------------------*- C++ -*----------------------------------*\
  =========                 |
  \\      /  F ield         | OpenFOAM: The Open Source CFD Toolbox
   \\    /   O peration     | Website:  https://openfoam.org
    \\  /    A nd           | Version:  13
     \\/     M anipulation  |
\*---------------------------------------------------------------------------*/
FoamFile
{
    format      ascii;
    class       volScalarField;
    location    "0.04";
    object      alpha.water;
}
// * * * * * * * * * * * * * * * * * * * * * * * * * * * * * * * * * * * * * //

dimensions      [];

internalField   nonuniform List<scalar> 
51200
(
0
0
0
0
0
0
0
0
0
0
0
0
0
0
0
0
0
0
0
0
0
0
0
0
0
0
0
0
0
0
0
0
0
0
0
0
0
0
0
0
0
0
0
0
0
0
0
0
0
0
0
0
0
0
0
0
0
0
0
0
0
0
0
0
0
0
0
0
0
0
0
0
0
0
0
0
0
0
0
0
0
0
0
0
0
0
0
0
0
0
0
0
0
0
0
0
0
0
0
0
0
0
0
0
0
0
0
0
0
0
0
0
0
0
0
0
0
0
0
0
0
0
0
0
0
0
0
0
0
0
0
0
0
0
0
0
0
0
0
0
0
0
0
0
0
0
0
0
0
0
0
0
0
0
0
0
0
0
0
0
0
0
0
0
0
0
0
0
0
0
0
0
0
0
0
0
0
0
0
0
0
0
0
0
0
0
0
0
0
0
0
0
0
0
0
0
0
0
0
0
0
0
0
0
0
0
0
0
0
0
0
0
0
0
0
0
0
0
0
0
0
0
0
0
0
0
0
0
0
0
0
0
0
0
0
0
0
0
0
0
0
0
0
0
0
0
0
0
0
0
0
0
0
0
0
0
0
0
0
0
0
0
0
0
0
0
0
0
0
0
0
0
0
0
0
0
0
0
0
0
0
0
0
0
0
0
0
0
0
0
0
0
0
0
0
0
0
0
0
0
0
0
0
0
0
0
0
0
0
0
0
0
0
0
0
0
0
0
0
0
0
0
0
0
0
0
0
0
0
0
0
0
0
0
0
0
0
0
0
0
0
0
0
0
0
0
0
0
0
0
0
0
0
0
0
0
0
0
0
0
0
0
0
0
0
0
0
0
0
0
0
0
0
0
0
0
0
0
0
0
0
0
0
0
0
0
0
0
0
0
0
0
0
0
0
0
0
0
0
0
0
0
0
0
0
0
0
0
0
0
0
0
0
0
0
0
0
0
0
0
0
0
0
0
0
0
0
0
0
0
0
0
0
0
0
0
0
0
0
0
0
0
0
0
0
0
0
0
0
0
0
0
0
0
0
0
0
0
0
0
0
0
0
0
0
0
0
0
0
0
0
0
0
0
0
0
0
0
0
0
0
0
0
0
0
0
0
0
0
0
0
0
0
0
0
0
0
0
0
0
0
0
0
0
0
0
0
0
0
0
0
0
1.6028677e-26
4.2398274e-48
0
3.2283983e-89
9.6402513e-61
-2.0217037e-54
2.6498921e-49
7.6738903e-28
-1.6959309e-47
1.2938029e-52
1.1416995e-64
3.2208238e-51
-9.8716174e-58
-1.2938919e-52
-8.4693522e-48
7.8605611e-27
6.2732864e-34
2.8547946e-24
2.4000456e-34
1.7779274e-42
1.9844537e-43
7.5914396e-71
0
3.5781976e-29
0
1.699413e-23
5.9098187e-25
3.3122604e-35
3.2360289e-41
4.3325437e-47
1.6173658e-53
5.5323912e-49
-9.8716174e-58
1.6341944e-24
7.4944349e-25
1.4713214e-27
1.0606768e-48
2.7398197e-51
4.8450143e-60
3.4555345e-35
1.9519481e-49
8.7164264e-27
4.4458646e-26
2.1056887e-28
4.8573406e-36
-3.7656106e-63
1.4924435e-62
5.0542681e-55
9.6492386e-53
1.7006305e-37
5.217276e-29
2.2707218e-30
3.5455156e-35
9.3659213e-71
8.7030582e-50
4.1910308e-46
5.5241823e-55
7.1126809e-40
2.5408672e-50
2.7639021e-36
1.030856e-36
-3.5912734e-69
8.8715578e-65
1.4476701e-48
1.9773346e-17
2.8316951e-16
4.8130759e-13
1.971381e-11
4.3504438e-13
1.0723625e-41
1.0723622e-41
9.9135799e-37
3.8100053e-31
7.3759181e-17
1.9550806e-14
2.1516982e-13
4.1510839e-14
1.0723622e-41
1.4145021e-39
8.5433133e-35
1.0153156e-14
3.6260305e-17
1.1146007e-17
7.6368369e-28
1.0669086e-16
1.4145007e-39
8.5431717e-35
4.0147288e-30
5.0035955e-16
1.131245e-18
1.347413e-25
7.6968842e-30
3.1745982e-35
5.7229153e-20
1.5720198e-21
1.1159974e-19
6.0922025e-19
6.4364926e-22
5.9300467e-26
7.5431555e-28
3.621284e-21
9.5579026e-21
1.6489243e-18
4.5955452e-17
3.5431209e-22
3.4386694e-24
6.5278636e-26
8.2004937e-22
5.8815176e-22
8.8432283e-22
4.4977477e-19
2.033508e-18
8.8875274e-42
6.9469975e-27
2.0927628e-26
1.6842193e-22
1.6434781e-23
2.9207489e-23
3.1707061e-21
1.9702971e-21
3.0028835e-26
1.0555614e-27
2.2706083e-26
3.760603e-24
3.4171087e-26
2.7812074e-26
1.4001878e-40
7.1242577e-41
3.4489248e-19
9.8912697e-15
1.1515362e-11
2.3587482e-10
2.5303298e-12
-9.7763933e-30
5.1686157e-07
6.0675836e-09
1.4502728e-11
3.4779344e-14
8.0804129e-13
1.1336233e-11
3.4617228e-13
1.2576548e-11
1.7117549e-08
9.4835866e-10
3.1994237e-18
1.028054e-14
7.2739305e-13
4.2479883e-13
6.0272156e-15
2.0144782e-13
1.3054653e-12
4.2634536e-24
1.9593375e-18
2.0094143e-16
1.7527374e-14
2.7401127e-14
2.3542647e-16
3.4484866e-16
1.5849427e-21
1.1066943e-19
8.5249305e-17
1.4283733e-18
6.2623012e-17
1.5276315e-16
1.8178521e-18
2.0785009e-18
9.4107618e-18
3.4470282e-17
3.7758308e-17
1.0564972e-19
8.9448187e-19
7.1615766e-20
1.9114771e-20
3.0627665e-20
4.5734803e-19
4.8181374e-18
2.7558582e-18
6.951081e-21
1.8419384e-21
2.2291094e-21
2.2765739e-22
1.1958964e-21
3.6760237e-20
9.0688711e-20
1.2046503e-20
9.0792103e-23
6.2933082e-27
2.8782997e-23
1.7407703e-24
6.8727894e-23
6.7865068e-21
1.5083842e-21
3.4489208e-19
7.5507273e-18
2.257642e-11
3.2441844e-10
2.4913351e-12
1.2181068e-09
7.1966149e-07
6.9983256e-09
1.6943491e-10
5.5700806e-13
4.6149584e-12
4.7808906e-11
7.265e-13
4.1856698e-16
3.2908693e-07
2.1681337e-08
9.32875e-14
3.7106577e-13
6.4133549e-13
9.1634044e-12
3.7123543e-13
1.0951475e-16
1.3510387e-10
2.3272837e-09
8.9104669e-12
6.8021301e-14
3.9686975e-14
7.5502945e-13
1.2191811e-13
1.0739138e-16
7.3098565e-17
2.6371615e-19
1.7888782e-13
1.0114488e-15
3.754134e-15
5.0760551e-15
4.1040107e-15
1.0741736e-16
3.3865343e-13
1.0971471e-13
2.2972954e-15
7.417445e-18
1.9384584e-16
4.67541e-18
1.5453195e-17
3.5252553e-18
1.4361808e-14
1.0018944e-15
2.5137853e-17
9.3096747e-20
9.3325286e-19
1.476112e-20
5.6281485e-20
1.1600235e-19
1.8993935e-16
1.0227986e-17
2.8390463e-20
3.8891829e-22
5.7161047e-25
9.3513774e-23
9.4329647e-26
3.5698993e-21
3.2305687e-19
5.2838394e-20
1.5754117e-06
2.9092828e-07
2.3904758e-11
2.3211266e-10
8.9592633e-14
1.9609659e-05
4.2127136e-07
7.3307244e-09
3.5519611e-08
3.6215329e-10
1.9602701e-10
8.9592633e-14
8.8924308e-14
6.6067348e-06
4.8027879e-07
3.3173941e-08
9.7288996e-14
8.413866e-12
9.2089513e-14
8.8924308e-14
8.86002e-14
3.515327e-07
1.2318606e-08
4.7473501e-09
7.5030851e-11
1.5924991e-12
2.350875e-12
4.6815632e-12
8.8632434e-14
1.0951475e-16
2.7608697e-16
2.452642e-16
2.3799386e-12
4.6235654e-14
5.483805e-13
2.8794029e-13
1.9337817e-14
1.083809e-16
3.3610729e-13
3.4020214e-12
2.9743212e-14
1.0860782e-16
4.2614707e-15
1.9089163e-16
2.7780772e-15
7.5957072e-16
3.1531499e-13
8.9184141e-14
2.825367e-16
5.9295521e-19
3.2110304e-18
2.0866422e-17
3.0230519e-16
1.7710785e-16
4.9190529e-15
7.7396119e-18
7.9374462e-20
8.972924e-22
1.750982e-24
1.1815267e-19
2.0037277e-18
1.5325369e-18
2.7142018e-18
9.2786526e-19
4.6671258e-06
5.5880696e-07
2.4843435e-11
2.6848209e-07
8.380589e-05
1.4501021e-05
3.0329641e-12
1.6914055e-06
1.5365274e-07
2.6549378e-11
2.6169259e-11
5.7908928e-07
3.7133651e-06
1.5243232e-05
1.4479593e-07
3.8160023e-08
7.7009529e-10
4.1425473e-11
1.3193098e-09
4.566771e-08
6.5020384e-16
3.3884368e-07
4.6496414e-08
2.2742122e-09
2.3426279e-10
1.1725243e-11
6.2750298e-12
4.0040972e-11
1.2688656e-16
4.3252603e-16
4.3812906e-10
4.6330942e-16
2.4240503e-12
1.6797991e-13
1.1010683e-12
5.8226902e-17
7.6063417e-17
1.5637674e-16
4.6700731e-16
4.3227567e-11
1.7823291e-13
1.0501308e-15
1.1546976e-14
5.7528772e-17
5.8883805e-17
5.7245275e-16
4.2691305e-12
1.0773544e-12
4.4793871e-15
1.7647308e-18
7.7848474e-18
5.7492512e-17
3.7290749e-16
5.8909677e-16
8.8910855e-16
5.6493985e-18
3.0212366e-18
2.3851772e-21
4.2572643e-19
2.8181927e-18
3.5205715e-17
4.1414778e-17
1.3452795e-16
1.0023957e-17
7.869679e-06
5.9009144e-08
2.7339252e-11
2.7954626e-11
0.00011467824
1.5024156e-05
7.0317466e-14
4.06278e-07
2.6387777e-06
3.929072e-09
2.6549583e-11
2.9379044e-07
0.0001093233
1.2955104e-05
2.2769188e-12
3.3281988e-08
5.4230816e-11
5.3720037e-11
2.8621403e-09
2.4699881e-08
3.9646378e-05
3.8994533e-08
3.902151e-08
2.6480194e-13
1.7484407e-10
3.3037491e-11
5.8120067e-11
3.8642263e-09
6.5033387e-16
1.0248037e-07
3.7456982e-14
3.0501137e-11
4.6745544e-11
8.5067618e-13
3.32113e-11
1.7639639e-09
1.9002488e-16
5.9782062e-17
5.8380717e-12
2.576763e-10
1.0673519e-12
1.0197034e-15
3.8201597e-20
2.9475098e-17
3.9141371e-17
1.4777652e-17
1.7217393e-11
1.0482208e-11
1.0802394e-14
4.1098473e-18
1.7587529e-21
3.0795542e-20
1.0927265e-18
1.2678091e-17
5.6867987e-18
5.6493985e-18
8.2655192e-16
2.0670524e-18
9.556367e-23
3.1752149e-22
4.7957908e-19
3.3380263e-17
2.5260799e-15
7.9916283e-17
1.8375267e-05
6.1704374e-07
6.2604363e-09
5.0476438e-11
0.00011469541
1.1981715e-05
6.5236413e-14
7.0314397e-14
1.6269336e-06
2.9546334e-08
2.6964293e-11
1.8589798e-11
0.00011469578
1.0778368e-05
6.0152297e-14
1.199771e-08
5.5068245e-11
5.42206e-11
1.4606407e-09
6.0763436e-12
0.00011468678
1.1970647e-07
5.2299033e-09
1.2884972e-13
2.2907836e-10
9.5285557e-11
2.6632437e-10
3.7761369e-12
7.4725472e-05
2.2463122e-06
1.9516397e-14
1.750739e-10
2.5192655e-10
6.7924963e-12
7.848963e-11
5.8519291e-09
5.8531037e-06
2.7793524e-07
5.8054104e-12
5.7624866e-10
2.7609222e-12
7.3388238e-15
2.9431332e-11
3.0377852e-10
1.6337528e-13
1.9071154e-08
2.9663858e-10
4.4562252e-11
1.4395687e-14
3.5604557e-13
4.6054431e-11
3.0505768e-17
3.812594e-14
1.4777652e-17
2.8699955e-11
5.6867987e-18
1.1110256e-14
2.2815224e-14
1.18451e-12
3.0787052e-20
3.1185714e-17
1.77509e-17
4.0516927e-17
5.9152755e-16
1.0448291e-05
1.3589391e-06
6.265931e-09
3.7031345e-06
0.00011469619
9.6033224e-06
2.4220985e-05
4.3044026e-05
1.9636757e-08
8.6674362e-08
1.433922e-07
1.8497695e-07
0.00011469694
4.7374065e-06
5.4444706e-14
6.0152297e-14
5.5358383e-11
5.5036352e-11
2.9680501e-09
3.7493912e-12
0.00011469494
3.2796683e-09
3.3887405e-14
8.8793412e-14
2.8403646e-10
6.4546705e-11
8.3810873e-12
3.7430764e-12
0.00011468595
1.0994698e-06
1.8898838e-14
8.3650095e-11
1.922242e-10
2.2479009e-11
2.3279303e-10
3.7761369e-12
0.00010454806
2.5602598e-07
1.9516399e-14
6.2248993e-10
9.3559065e-14
7.9075546e-15
3.7556561e-11
1.165204e-07
2.6358969e-05
5.1469773e-07
3.4224263e-11
9.1087473e-11
7.9718237e-14
3.3686658e-13
1.6095272e-10
8.3563635e-08
7.7134577e-07
3.8322517e-08
1.9177954e-11
6.2076419e-18
6.9618485e-14
1.4727173e-15
2.9113281e-10
1.1522388e-08
9.1760628e-14
6.2769154e-17
5.4162982e-17
1.1434525e-15
3.8805336e-06
9.4691255e-07
7.9338278e-09
1.6443383e-10
5.2464845e-05
7.1124933e-06
2.4257816e-05
0.00011833442
3.2232605e-11
2.2732763e-07
1.9985688e-07
3.7493912e-12
8.4183162e-05
6.0267712e-06
3.9525603e-14
5.8290004e-05
9.78084e-10
2.60116e-09
2.7168849e-08
3.7430764e-12
0.00010139194
4.5413593e-07
1.8899228e-14
1.5250048e-12
2.1257968e-10
3.9631767e-12
3.7430827e-12
3.7430827e-12
0.00010690943
1.889921e-14
1.889921e-14
1.8899213e-14
1.0437762e-10
6.3142605e-11
2.6252948e-10
3.7430764e-12
0.00010680769
1.9749169e-14
1.8899033e-14
4.4521635e-10
1.5980911e-14
1.1804625e-14
5.7051266e-11
3.8222888e-12
0.0001052045
2.0205044e-07
1.974917e-14
1.8958815e-10
1.6416973e-14
9.2266438e-15
1.7627887e-14
4.1926563e-08
3.1932649e-05
6.6318014e-07
4.6441821e-14
6.6734875e-12
2.5123169e-13
1.0788526e-15
1.0596395e-10
1.1624563e-08
1.5744759e-06
1.4837962e-07
2.8858361e-16
1.9247024e-12
4.2681697e-06
6.493771e-08
1.1625213e-11
0.00015064096
1.0695294e-06
1.0474091e-06
3.3758101e-05
0.00011833952
1.4071448e-11
1.8149402e-07
1.4632338e-11
9.1248941e-05
7.9527576e-06
1.6308017e-06
9.0486742e-08
0.0001183443
1.4037762e-09
6.4312786e-12
6.80732e-12
5.605123e-05
1.4916538e-05
1.0409599e-06
3.2909172e-08
8.9504748e-05
4.9931469e-12
4.233462e-12
3.9631767e-12
3.3697009e-05
2.0325395e-05
4.1449642e-08
1.889921e-14
2.0158142e-06
2.2167021e-11
1.8930091e-09
3.5412936e-08
3.8222888e-12
2.4080851e-05
5.6777833e-07
1.8973731e-14
1.9005542e-14
2.6477526e-12
9.6659181e-09
1.7312315e-07
1.4442239e-10
5.8702331e-05
1.4321878e-06
1.9027129e-14
1.8999288e-10
1.1394308e-12
5.7508305e-09
9.3704429e-08
4.0005592e-11
2.4677663e-05
1.6939328e-06
2.450769e-14
6.0685048e-12
2.8183078e-15
2.02622e-15
2.4115382e-15
4.8780408e-13
9.5710596e-07
1.1524367e-07
4.644183e-14
2.361727e-12
1.0428628e-05
3.5882252e-10
1.0528288e-11
0.001343426
0.00025653367
5.6583371e-09
1.9335917e-05
9.091243e-05
4.1037592e-12
6.3285524e-09
9.223696e-12
0.0013980236
0.00019595163
2.2293173e-09
1.574619e-06
0.000122135
1.2380089e-08
3.9829111e-11
9.016029e-12
0.001423144
0.00014705615
5.7328645e-11
1.8074956e-12
0.00012209554
1.7255615e-08
8.7708169e-10
6.6000658e-12
0.0013769294
0.00010625593
1.8074956e-12
1.005471e-12
8.4872141e-05
9.6719802e-12
8.2177408e-10
9.0164418e-12
0.0014297606
6.3968606e-05
1.4517743e-10
7.7896441e-10
1.096203e-05
1.1518166e-12
5.5856618e-09
1.1005921e-10
0.001376687
8.7497261e-07
8.7546445e-07
2.8416011e-14
1.2971588e-13
5.7937715e-13
5.3128087e-09
7.0489533e-10
0.0010517908
6.8212057e-06
8.9934573e-07
6.1854703e-14
1.5667446e-12
5.0604198e-15
2.9709836e-15
1.9088903e-06
0.00064031153
9.1504398e-10
1.999202e-11
3.8387395e-11
2.5577513e-12
1.1389381e-05
1.0835502e-10
1.1625213e-11
0.0014083574
0.0012997544
0.00011249305
3.1581461e-06
5.1992925e-05
3.9056387e-12
3.5381472e-12
1.7343564e-05
0.0014435727
0.0013662418
0.00012278716
6.0283362e-06
0.00012213115
1.6378113e-11
3.3708766e-12
9.6664462e-06
0.0014436853
0.0013474356
7.7749806e-05
9.8292628e-07
0.00012213439
1.7669666e-08
3.4252688e-12
1.726851e-05
0.0014436853
0.001409611
7.2114859e-05
1.0405659e-12
5.5155363e-05
3.483641e-09
6.1771021e-12
4.4296728e-06
0.0014436918
0.0013101971
7.9986495e-05
6.3465587e-13
7.1108201e-06
1.3884917e-12
1.7777369e-12
2.4806402e-11
0.0014424063
0.0013726652
5.7516686e-06
1.2971587e-13
4.7457442e-13
9.7845113e-13
1.6146503e-09
6.2038583e-10
0.0014394866
0.0013284244
1.2325906e-05
4.1493025e-13
6.4302451e-13
4.0421067e-13
4.0222927e-13
8.0161279e-13
0.0012799989
0.00091182562
3.3742703e-05
6.1461813e-12
8.1341984e-13
1.5571615e-06
3.5765621e-10
9.839433e-05
0.0014430656
0.00072460015
1.3719923e-05
2.9092672e-06
3.3921778e-06
9.692987e-07
3.3708777e-12
0.00015574605
0.0014433338
0.00079992407
5.0490381e-05
7.3835834e-06
4.6449746e-05
3.3708766e-12
3.3708777e-12
0.00017751936
0.0014435678
0.00079263457
4.5500338e-05
6.9992086e-06
7.0541458e-05
3.4254969e-12
3.2581866e-12
0.00016994886
0.0014436799
0.00083917661
3.7643841e-05
9.7818745e-13
1.8682527e-09
4.7839586e-09
3.1454966e-12
0.00017463478
0.0014434543
0.00087362397
1.2138807e-05
9.1659831e-13
2.0511977e-06
1.7777369e-12
2.5382901e-12
0.00017116921
0.0014426106
0.00083615273
9.1660295e-13
5.7306672e-13
6.7027165e-13
1.1305006e-11
1.9734905e-12
0.00011301209
0.0014414494
0.00066558703
3.4481992e-11
8.1812411e-13
2.2009165e-12
1.139649e-09
8.0148597e-13
0.00014001142
0.0014394646
0.00030988453
8.4681593e-06
5.3560595e-09
8.1901234e-13
2.7778184e-10
3.4123385e-06
7.4288208e-05
0.0010231173
0.00023135869
8.6151493e-06
7.4257762e-07
4.1738466e-08
2.152981e-07
3.0667752e-11
5.980179e-05
0.0011715927
0.00022696147
1.4563411e-05
5.8489681e-06
2.2671581e-06
1.3257667e-07
3.3708777e-12
0.00014768927
0.00095025346
0.00027538355
4.3395973e-05
5.6035297e-06
7.7631979e-06
1.1098037e-06
3.4252686e-12
0.00011235944
0.0010198527
0.00024983875
2.5714326e-05
1.127208e-12
9.4302487e-13
3.0911458e-10
6.7843086e-12
2.5180304e-05
0.001125986
0.00013832086
2.8371178e-05
9.4302484e-13
6.7027165e-13
2.433809e-11
3.1454966e-12
3.5541688e-05
0.0011226389
0.00010718332
1.1070571e-05
2.7294669e-09
6.6757734e-13
3.1895494e-11
8.9898344e-12
5.867218e-05
0.00096901436
9.5177231e-05
3.6899245e-06
1.0593076e-07
6.5590299e-13
2.6013326e-08
2.649659e-11
0.0001078639
0.00079820542
9.6821104e-05
9.6098448e-06
8.3081409e-13
6.6734867e-13
2.717304e-10
5.054856e-06
3.6315985e-05
8.4162338e-05
0.00022834164
1.5186368e-05
6.2240253e-07
4.1725967e-08
2.6571006e-10
5.7972118e-11
1.5435012e-05
0.00011772842
0.00023499859
9.3031994e-06
2.4463098e-06
4.3832437e-08
7.1216691e-08
3.0667752e-11
4.7623799e-05
0.00027535746
0.00024292041
3.0774527e-05
3.4984547e-06
7.0168741e-08
2.5808788e-07
3.077686e-11
5.3589474e-05
0.00032727556
0.00016981364
2.9762576e-05
4.0988058e-07
3.4050691e-08
3.9018837e-08
1.8997422e-11
7.4598374e-05
0.00014878663
2.6467643e-05
2.3064482e-05
1.4650608e-06
7.5135912e-11
5.6089838e-09
1.535861e-11
7.6183241e-05
0.00012461704
3.7086543e-06
8.9246546e-06
4.8896522e-07
6.8711649e-09
2.9711422e-08
2.1202947e-11
9.4188648e-05
0.00014986741
8.3587091e-06
5.3155029e-06
9.1501041e-07
1.5122595e-08
7.5024109e-08
4.8640373e-11
0.00011951969
0.00011050615
1.1317281e-05
1.0468478e-05
2.0734098e-06
2.5709206e-09
1.4823656e-05
1.0827231e-05
0.00012307599
2.9417246e-05
8.309084e-06
5.5505713e-05
5.7324878e-06
1.4311536e-08
4.2832954e-10
7.3841687e-06
3.0958194e-06
1.149429e-05
4.8601158e-06
3.5357224e-05
5.828969e-06
7.4881089e-09
5.6965133e-10
2.3496716e-06
3.0859208e-06
6.0223074e-06
1.0168062e-05
3.0610381e-05
6.3472915e-06
3.3192044e-09
1.3330047e-10
3.8168506e-11
5.7621006e-05
4.3872346e-07
1.8122448e-05
1.982228e-05
3.3254301e-06
2.1982988e-09
3.8168506e-11
3.2870118e-11
9.2414935e-05
9.3579723e-07
3.6860103e-06
7.3545991e-06
1.4188458e-06
5.0829509e-08
1.970332e-10
2.7571723e-11
9.3448049e-05
2.5375662e-07
1.4093266e-06
2.8212074e-06
2.3320907e-07
1.3781411e-09
2.5873882e-10
1.9101301e-06
9.5799687e-05
2.8889395e-07
6.6418183e-08
2.2073801e-06
9.4917041e-07
2.3050762e-07
3.9606787e-10
2.8139865e-06
0.00011952221
1.9193338e-06
2.6333064e-08
5.8329003e-06
3.1404351e-06
4.5047449e-07
0.00055498356
0.00010023775
0.00017077606
5.1335257e-06
4.622035e-06
3.2592075e-05
1.3484468e-05
1.465149e-08
0.00036762414
6.9998105e-05
1.2509661e-05
2.2432929e-06
4.8869858e-06
2.9684603e-06
2.1296691e-06
6.9428684e-07
0.00029693786
3.8976909e-05
2.3450554e-07
2.4510619e-07
9.366114e-07
9.2509606e-07
2.6521161e-08
6.4700109e-07
0.00020131744
6.6739337e-05
1.6108177e-05
4.972462e-08
6.2410118e-08
3.2625778e-08
1.3585504e-08
1.4920313e-06
6.091277e-05
1.5589441e-05
5.6023905e-05
1.003386e-06
2.8064075e-06
1.3585504e-08
6.2911506e-09
4.4323185e-07
2.6175464e-10
1.3869571e-09
9.3307153e-05
2.5375662e-07
3.5420866e-06
1.333107e-06
2.7333762e-09
2.0206747e-09
3.9606702e-10
4.2662408e-09
9.2590646e-05
4.5967407e-07
7.0621048e-08
2.4163108e-08
1.956768e-07
1.2901251e-07
1.0469819e-09
3.6170573e-06
6.0464423e-05
2.5776041e-06
2.6039255e-08
3.7790612e-07
5.2312408e-07
4.0128539e-07
0.00062281369
0.0003856864
0.00014139783
3.8831598e-08
4.5150957e-08
0.00016637852
5.5849908e-05
0.00014335413
0.0006085676
3.4960427e-05
3.2723725e-05
3.4506966e-08
3.8831598e-08
6.072377e-08
6.3976503e-05
6.9638837e-07
0.00062040827
0.00011113699
3.4506966e-08
3.4506966e-08
1.2572936e-05
7.8180351e-08
5.7569613e-05
3.3466004e-06
0.00061253024
5.2038176e-05
1.0292078e-06
3.4506966e-08
3.4987833e-08
1.7023175e-05
5.7283961e-05
5.3916179e-06
0.00061674871
3.1257738e-05
3.7780793e-05
3.5003352e-08
3.6767063e-08
2.5345121e-05
6.966695e-05
7.1231857e-06
0.00061209996
5.9171832e-05
9.3131155e-05
6.0220553e-07
2.8121638e-08
2.411816e-08
7.0266333e-06
1.9318326e-06
0.0001925721
4.4568623e-05
5.0695745e-05
4.8161618e-07
2.4120489e-08
2.4018883e-08
2.4117909e-08
4.4244055e-07
1.260251e-05
8.2084773e-06
2.2970018e-05
4.8584631e-07
5.0602765e-06
1.913308e-08
6.3015898e-07
4.4138415e-07
0.0006225923
0.00045474134
4.8074095e-05
0.00010703439
0.003946757
0.0015047439
8.5562593e-06
0.00022318064
0.00062226858
0.00020290695
2.4327996e-05
0.00025373119
0.0033008292
0.0016239611
8.0897551e-06
7.9565012e-06
0.00062140392
0.00013956
1.3810375e-07
0.00020776298
0.003257492
0.001577887
3.0142765e-05
8.8083575e-07
0.00062040538
8.0169428e-05
6.8986206e-07
0.00021934512
0.0023052249
0.0011229034
7.1080396e-05
1.2689677e-06
0.00061924919
4.9204992e-05
1.4207206e-06
0.00020266071
0.0015554272
0.00054290513
0.00010756941
2.5550563e-06
0.00061670591
5.0710287e-05
9.6136541e-06
0.00012161053
0.0016891387
0.00023588358
3.5649416e-05
8.8792538e-07
0.00039650418
3.4493868e-05
3.4297352e-06
6.5586655e-05
0.0022391402
0.00011404047
1.7724966e-05
2.793544e-07
4.3637705e-05
1.3672703e-05
9.9140852e-07
0.00011265838
0.0008775996
0.00010318497
2.0779586e-05
1.4578159e-07
0.00047176484
0.00024093753
0.0027421373
0.0014290626
0.025847492
1.3747742e-05
1.3676144e-05
0.00021364819
0.00061778611
0.0004933828
0.0029750164
0.0011950929
0.028289844
1.1201806e-05
2.4301335e-05
4.0206846e-06
0.00061077131
0.00054298133
0.0023013482
0.0031096929
0.025743897
3.1976559e-06
2.5545823e-06
8.5926633e-07
0.00061923356
8.9641747e-05
0.00098133039
0.0023865787
0.028231869
1.1200531e-05
4.0294616e-05
8.293346e-07
0.00061801678
7.6662871e-05
0.00058379537
1.4523132e-06
0.025550493
2.2907975e-05
5.9476766e-05
7.1493599e-07
0.00044770678
1.4378271e-05
5.8808023e-07
6.3315626e-07
0.021037121
0.00040525327
1.8030305e-07
1.6720263e-07
6.0710795e-05
1.8302034e-06
2.817345e-07
5.9237569e-07
0.01079789
0.00074835373
3.500671e-06
1.6112162e-07
5.8206401e-06
1.1319141e-06
2.1947424e-08
2.7524852e-07
0.012261419
0.00050949152
1.1648658e-05
1.5330383e-07
6.8149813e-05
4.8928655e-06
0.027856459
0.2105641
0.20843626
0.0099722362
1.2839462e-06
8.9131416e-05
0.00018109141
2.1453518e-05
0.033321463
0.21087304
0.21460988
0.013513268
8.9423352e-07
3.2891313e-05
0.00021330174
1.6257243e-06
0.026597941
0.20456788
0.21476667
0.011741792
7.930889e-07
6.5301079e-06
0.00012832032
8.3579113e-07
0.020833991
0.18992594
0.21461532
0.014322817
5.2492519e-07
3.0284153e-06
0.000198222
4.0966524e-07
0.014605375
0.18687925
0.20629374
0.013934287
2.9501306e-07
6.4915631e-07
8.653837e-05
1.1538774e-06
0.0091665142
0.15797703
0.20894919
0.010662621
2.4354069e-07
1.8322463e-07
2.4617352e-07
1.1600615e-06
0.008960319
0.13289173
0.19150917
0.0045183557
2.9601506e-07
3.4888959e-06
3.062561e-05
8.8127103e-05
4.8211271e-06
0.088338567
0.18256707
0.00099554904
4.021734e-07
7.5597661e-06
9.9310379e-06
1.682396e-06
0.058104647
0.21498087
0.21497988
0.07395076
1.0023446e-06
2.7604883e-05
2.5043362e-06
5.8545174e-07
0.07512675
0.21498163
0.21498087
0.088792731
7.930889e-07
6.7087265e-06
3.425297e-07
1.2196216e-07
0.076293251
0.21498073
0.21498169
0.087413053
7.1964888e-07
7.7006674e-07
5.3192981e-08
9.1251481e-08
0.079991461
0.2149803
0.21497793
0.09006761
6.8425657e-07
6.973291e-07
4.958005e-08
9.6246817e-08
0.081759451
0.21497656
0.21474676
0.083796316
5.1914865e-07
3.7688361e-06
1.1842934e-07
1.1962934e-06
0.079677692
0.20175795
0.21423727
0.062233811
1.5677489e-06
9.6800954e-06
1.417385e-07
2.567332e-07
0.075294001
0.21231847
0.21331361
0.090492915
4.1069445e-07
3.1176145e-06
3.7452372e-06
8.3312533e-06
0.074090587
0.19743708
0.17071492
0.089829684
0.0032814201
8.0490746e-06
1.7756891e-05
8.9631113e-07
0.0098807642
0.049848376
0.15680334
0.020517537
8.9825134e-07
0.00010394357
6.4659602e-06
3.79639e-07
0.012819321
0.04932958
0.15217715
0.022404377
7.3050782e-07
4.9105264e-06
4.2724522e-07
1.1326867e-07
0.014461301
0.04447574
0.18306046
0.015630476
6.8425716e-07
6.9662643e-07
1.1169689e-07
1.1348033e-07
0.016824428
0.035263051
0.1526249
0.027329299
6.8456795e-07
6.8425688e-07
9.0721586e-08
1.111698e-07
0.018251424
0.039787899
0.10040397
0.027405098
6.8440483e-07
6.2787949e-07
6.596046e-08
8.523193e-08
0.021576603
0.030364192
0.088986815
0.030093407
4.9194036e-07
2.4416276e-06
9.2911049e-08
1.3965454e-07
0.022743953
0.02506163
0.096423853
0.027916847
9.8793917e-07
6.6408713e-05
1.8961412e-06
1.0721615e-06
0.026090631
0.021444199
0.064548934
0.026358425
0.00081255637
8.951772e-05
1.7442191e-05
5.0720209e-06
2.0944118e-06
0.0022814611
0.04422594
6.3779849e-07
8.8830046e-05
0.00013416098
1.9991983e-05
1.0144238e-05
2.2906136e-06
0.0027448554
0.0441042
1.5550412e-06
9.5398475e-07
6.0749243e-05
1.1327152e-07
1.1339484e-07
5.4653156e-07
0.0032417611
0.037349285
1.2161686e-06
7.3050939e-07
3.6914145e-05
1.4748156e-07
1.1341103e-07
2.2064524e-06
0.0036339358
0.037297954
8.6254291e-07
6.8426032e-07
1.1967568e-05
1.2146549e-06
1.0552062e-07
2.870701e-06
0.0034086967
0.032319283
7.4818459e-07
6.8427454e-07
4.9142514e-06
1.4126575e-06
1.6118083e-06
1.0879844e-06
0.0041240934
0.032395499
7.8956081e-07
7.4427488e-07
1.8312922e-06
9.2724134e-08
1.9789687e-05
1.3309969e-05
0.0039677521
0.025748128
7.89395e-07
8.0765029e-07
1.5326429e-05
8.5146587e-08
5.9931855e-05
1.6029795e-05
0.0041600474
0.021493435
7.9150262e-07
9.4772867e-06
2.4274467e-05
2.1112135e-05
7.4007423e-06
1.8046148e-06
4.8609544e-06
5.9121451e-07
5.8196867e-07
2.0444236e-05
0.00013424766
2.9981421e-05
5.0131669e-06
2.2984785e-06
3.0242852e-06
9.2606719e-05
3.5745594e-05
6.1212816e-05
6.123363e-05
2.3676933e-05
9.1547127e-06
2.7998406e-06
3.2472541e-06
0.00014229055
1.3407509e-05
7.1824659e-06
2.4982738e-05
1.7474327e-07
2.1477052e-06
2.6419722e-07
9.0813132e-05
5.9144669e-05
1.9796178e-06
3.5191135e-06
3.4663632e-05
2.4038682e-06
8.8739798e-08
1.1426971e-07
0.00015043998
1.3392198e-05
7.893093e-07
7.8139831e-07
4.4343557e-05
1.6742973e-06
5.1277373e-07
2.0298411e-07
0.00014921845
9.3113284e-07
7.8907214e-07
7.8918513e-07
7.9646159e-07
8.2866581e-08
1.0696191e-05
3.0660175e-07
9.4193625e-05
1.5080402e-05
7.9012093e-07
7.8904749e-07
8.0799887e-07
8.2029414e-08
2.614843e-05
6.5514586e-07
2.5284698e-05
9.5532722e-07
7.89109e-07
1.1025518e-06
1.5289363e-06
1.8916496e-05
3.0551517e-06
3.1489436e-07
1.0950071e-06
1.1192491e-08
6.4971513e-08
1.1404722e-06
2.2095724e-05
2.0285291e-05
5.1911999e-06
3.6163882e-06
4.6483063e-06
1.599187e-07
3.7300498e-06
3.8746089e-05
6.122205e-05
2.9134387e-05
9.4943281e-06
2.7604062e-06
8.584696e-06
2.7569876e-07
4.7225999e-05
8.351964e-05
2.9109224e-05
5.0971517e-06
1.3713694e-06
1.7757396e-07
2.2315872e-05
3.2211628e-06
7.1528675e-05
8.5195119e-07
4.1566779e-06
8.5869846e-07
8.5112439e-08
8.5205287e-08
2.3606242e-05
7.647772e-06
8.1609539e-06
8.2161789e-07
5.4802456e-06
2.4347022e-07
8.3617383e-08
8.4363975e-08
3.4056908e-05
6.4871836e-06
7.8855052e-07
7.89665e-07
8.9794859e-06
8.1666435e-08
4.4864056e-07
8.69644e-08
7.3360017e-05
6.7951794e-06
1.2861644e-06
8.4988977e-06
1.4349202e-06
8.1634591e-08
8.3850107e-07
9.1624337e-08
1.9171584e-05
2.2384312e-06
8.119981e-06
4.5908158e-05
1.6907389e-06
1.035301e-06
9.4228244e-08
1.0724012e-08
6.4085959e-09
3.4601504e-11
1.0625439e-09
1.2447896e-09
1.1264339e-10
6.0901285e-06
3.6514962e-06
2.6931078e-06
1.2236774e-07
1.3336279e-09
5.6093807e-10
1.4712681e-05
4.005256e-05
1.2400907e-05
4.3983987e-06
1.163119e-05
1.6491188e-06
1.4049239e-08
3.862916e-05
9.2808403e-05
9.2537979e-05
1.5171181e-05
8.5112713e-08
4.9711841e-07
4.5459999e-07
1.1141121e-06
0.00010033163
0.0001001504
1.0444582e-05
4.7499563e-06
8.3193926e-08
8.4153901e-08
8.7812829e-07
1.6749103e-06
8.4036599e-05
1.4173857e-05
2.9539976e-06
8.1694434e-08
8.2914935e-08
8.3107608e-08
5.6306309e-07
9.9134298e-06
6.6470402e-06
8.1722654e-07
2.6970736e-06
8.1694193e-08
8.1666435e-08
8.3660663e-08
2.2324091e-05
6.1035875e-06
1.198039e-06
1.2643296e-06
1.9684686e-05
8.1666435e-08
8.166644e-08
8.7964496e-08
2.2797337e-05
2.1431874e-06
1.9641892e-06
3.1366678e-05
5.7111505e-05
1.0624405e-12
1.2328571e-12
4.6985439e-08
1.080219e-09
4.1945504e-14
8.4738169e-14
2.3725927e-11
1.9053263e-12
4.635434e-07
1.1838907e-07
1.3938032e-07
9.0129089e-10
4.9400758e-12
5.3832225e-12
7.1437797e-07
3.3284502e-06
2.1806997e-06
5.0180914e-06
1.1624834e-05
7.9618385e-07
4.2801272e-10
1.384228e-05
5.8356818e-05
6.3374723e-05
2.6106115e-05
5.2823798e-05
2.3254944e-05
5.8165938e-08
1.5226854e-06
7.6419191e-05
0.00010093378
0.00010090996
6.3752647e-05
3.0964938e-06
2.7490708e-05
2.5370167e-06
1.0227101e-06
0.00010091706
0.00010100479
4.1667591e-05
0.00018909563
1.2419779e-05
1.1617418e-05
2.6316735e-06
7.2610551e-06
8.597222e-05
7.8273264e-05
2.5058649e-05
0.00012803324
9.8655854e-06
1.1415784e-06
6.7973126e-06
9.5744354e-06
4.045502e-05
4.8253402e-05
4.2015555e-05
9.1176003e-05
9.1567103e-08
9.1624297e-08
1.7420692e-05
7.7238799e-06
2.1560557e-05
2.2788394e-05
4.1824181e-05
1.5604387e-13
7.5296345e-13
6.5801869e-13
4.1741555e-14
1.0764667e-16
1.7222926e-14
1.2930983e-13
1.5559647e-15
7.2793471e-07
1.5290502e-06
3.9945442e-11
1.2655925e-07
2.9397811e-14
1.0081058e-13
1.5270234e-09
2.5688678e-12
2.7725845e-07
5.0602969e-05
1.0222217e-05
1.5584523e-07
4.9400673e-12
4.9695568e-07
8.4874367e-06
7.2145376e-06
2.2282286e-05
9.0526968e-05
2.0621867e-05
1.3533237e-08
3.7613595e-07
1.5402708e-05
6.0845656e-05
3.8101533e-05
6.7660235e-05
7.0216714e-05
3.0226032e-05
1.0062127e-06
2.3268403e-07
4.2784455e-05
8.0229485e-05
5.0713023e-05
0.00022489529
7.2151973e-05
4.8130008e-05
2.7433629e-06
1.7240621e-06
5.9575363e-05
8.8664535e-05
8.8699524e-05
0.00042528149
8.6762204e-05
6.505292e-05
3.6500379e-06
7.1480898e-06
7.2515646e-05
8.8699524e-05
8.7532486e-05
0.00043248309
0.00010812731
3.5282669e-05
2.9646646e-06
6.6711333e-06
5.2901254e-05
8.1279932e-05
2.4131606e-05
1.1059251e-10
1.2684335e-07
4.9899098e-06
2.0263823e-07
1.6884186e-17
2.1118122e-14
2.6785574e-18
2.8559745e-16
2.3807053e-06
2.2971081e-05
2.3130965e-05
1.5635345e-06
1.0617447e-16
1.0851066e-14
1.3084933e-14
2.9118e-15
2.7796909e-07
7.8025711e-05
1.6644338e-05
3.1356321e-07
2.9397843e-14
3.3517543e-13
2.9940032e-09
1.3163275e-11
2.8523186e-05
0.00010416943
2.007232e-05
8.5479329e-09
1.0203899e-08
1.1333327e-07
4.7863638e-06
5.5283753e-07
5.1088345e-05
0.00014477715
2.5154729e-05
2.0222165e-09
3.1713262e-09
1.889983e-06
1.3445451e-05
1.0247661e-05
7.9580241e-05
0.00012569613
4.5096868e-05
9.361197e-07
3.3470608e-10
5.9805258e-06
2.9898385e-05
3.0022351e-05
0.00015859209
0.0002184889
6.0221112e-05
6.1129023e-07
1.9817906e-06
1.7039596e-05
4.3317679e-05
6.3374103e-05
0.00023145192
0.00037106982
4.2345006e-05
2.9221689e-09
3.4035198e-06
2.4369895e-05
5.6974411e-05
2.2785188e-05
3.474887e-14
2.7540555e-08
1.4676714e-06
1.6884187e-17
1.3864891e-17
4.5056064e-14
1.7915324e-18
1.0920238e-20
4.4568038e-06
2.3742753e-05
3.4070925e-05
3.1316108e-06
1.5412246e-17
1.2652698e-12
5.5238077e-15
1.0734012e-15
2.7725803e-07
7.1187071e-05
6.0718467e-05
3.3444891e-07
3.9061195e-16
1.0739888e-13
5.0176585e-14
4.6532619e-14
7.1621568e-05
0.00014313807
3.1221782e-05
7.2744104e-11
4.7325663e-14
8.5951675e-12
9.8789332e-11
7.456582e-12
5.6866312e-05
0.00025849026
3.4234797e-05
2.3190447e-10
1.7464457e-10
1.2067707e-10
3.7140233e-10
5.331377e-09
5.9479113e-07
0.0003785193
1.1882189e-05
2.6127171e-10
1.4331513e-11
2.4794941e-10
9.817447e-08
3.1848267e-07
2.4452429e-05
0.00037828563
1.0080942e-05
2.3755703e-09
2.4875668e-08
1.1557049e-09
9.7702269e-07
1.2438391e-06
6.2629788e-05
0.00031914574
2.7753072e-06
1.5977259e-09
3.1889451e-07
6.4815515e-07
1.2330323e-06
7.3284632e-06
5.3383974e-13
2.4366368e-11
2.4905531e-13
1.2299869e-17
1.3859595e-17
8.7030698e-15
4.6490717e-18
5.6891282e-21
3.8245528e-06
1.2912369e-05
2.0937921e-05
1.7622492e-06
1.3864891e-17
4.3732983e-15