/*--------------------------------*- C++ -*----------------------------------*\
  =========                 |
  \\      /  F ield         | OpenFOAM: The Open Source CFD Toolbox
   \\    /   O peration     | Website:  https://openfoam.org
    \\  /    A nd           | Version:  13
     \\/     M anipulation  |
\*---------------------------------------------------------------------------*/
FoamFile
{
    format      ascii;
    class       volScalarField;
    location    "0.04";
    object      p;
}
// * * * * * * * * * * * * * * * * * * * * * * * * * * * * * * * * * * * * * //

dimensions      [1 -1 -2 0 0 0 0];

internalField   nonuniform List<scalar> 
51200
(
1.0568273
1.0430138
1.0349637
1.0318376
1.0318354
1.0349574
1.0430044
1.0568159
1.0465954
1.0334003
1.0260429
1.0232596
1.0232575
1.0260368
1.0333911
1.0465841
1.0372565
1.0249003
1.0181993
1.0157036
1.0157016
1.0181935
1.0248913
1.0372452
1.0296504
1.0181862
1.0121257
1.0098757
1.0098738
1.0121201
1.0181775
1.0296393
1.0232186
1.0126307
1.0071971
1.0051641
1.0051622
1.0071916
1.0126224
1.0232077
1.0176093
1.0078662
1.0030355
1.0011971
1.0011954
1.0030303
1.0078581
1.0175986
1.0127055
1.0037385
0.99948345
0.99782382
0.99782215
0.99947846
1.0037307
1.0126952
1.0084741
1.0000691
0.99639402
0.99490429
0.9949027
0.99638927
1.0000617
1.008464
0.96903989
0.96836587
0.96794019
0.96744999
0.96744769
0.96793348
0.96835573
0.96902747
0.97006997
0.96951383
0.96907172
0.96858176
0.96857954
0.96906523
0.96950395
0.97005761
0.97122476
0.97084056
0.97038478
0.96989077
0.96988864
0.97037852
0.97083098
0.97121252
0.97240186
0.97216562
0.97169228
0.97119475
0.97119271
0.97168625
0.97215637
0.9723898
0.97359152
0.97343964
0.97294577
0.97244921
0.97244726
0.97294001
0.97343076
0.97357968
0.97474419
0.97460816
0.97409562
0.97360666
0.97360481
0.97409012
0.97459965
0.97473263
0.97580574
0.97562963
0.97510403
0.97462941
0.97462764
0.9750988
0.9756215
0.97579451
0.97666803
0.97643602
0.97590394
0.97544613
0.97544444
0.97589899
0.97642829
0.97665721
0.97129687
0.96999175
0.96919702
0.9688141
0.96881137
0.96918881
0.96997942
0.9712819
0.97159574
0.97030516
0.96956929
0.96919979
0.96919716
0.96956133
0.97029314
0.97158081
0.97188431
0.97062534
0.96995238
0.96959445
0.96959192
0.96994469
0.97061365
0.97186946
0.97201188
0.97079956
0.97019599
0.96985474
0.96985232
0.97018859
0.97078825
0.97199717
0.97201694
0.97087252
0.97034032
0.97002025
0.97001794
0.97033321
0.97086162
0.97200242
0.97196114
0.97089714
0.97043456
0.97013961
0.97013741
0.97042775
0.97088667
0.97194688
0.97184661
0.9708731
0.97048401
0.97022032
0.97021823
0.97047752
0.97086309
0.97183268
0.97151488
0.97072472
0.97043169
0.97020964
0.97020766
0.97042555
0.9707152
0.97150142
0.96084666
0.96062157
0.96066363
0.9607568
0.96075336
0.96065309
0.96060592
0.96082791
0.96104215
0.9608666
0.960917
0.96098946
0.96098616
0.96090679
0.96085133
0.96102345
0.96124192
0.96111154
0.96117497
0.96122955
0.96122638
0.9611651
0.9610967
0.96122332
0.96142539
0.96133186
0.96141179
0.96145408
0.96145104
0.96140227
0.96131747
0.96140692
0.96159859
0.96153955
0.96163828
0.96167271
0.96166981
0.96162913
0.96152564
0.96158031
0.96177306
0.9617456
0.96186343
0.96189347
0.9618907
0.96185466
0.9617322
0.96175505
0.96194613
0.96195528
0.96209202
0.96212176
0.96211912
0.96208366
0.96194243
0.96192847
0.96205355
0.96218219
0.96233596
0.96237191
0.9623694
0.96232802
0.96216991
0.96203641
0.955338
0.95516407
0.95527133
0.95546769
0.95546316
0.95525704
0.95514325
0.95531351
0.95543928
0.95530259
0.95542097
0.95559532
0.95559097
0.95540713
0.95528226
0.95541483
0.95554856
0.95544652
0.95557819
0.95573312
0.95572894
0.95556479
0.95542671
0.95552419
0.95564048
0.95556761
0.95571627
0.95585796
0.95585396
0.95570334
0.95554837
0.95561625
0.95571793
0.95567201
0.95584123
0.95597478
0.95597096
0.9558288
0.95565336
0.95569391
0.95578783
0.95576651
0.95595933
0.95608877
0.95608512
0.95594741
0.9557485
0.95576411
0.95584561
0.95585721
0.95607684
0.95620644
0.95620295
0.95606546
0.95583988
0.95582229
0.95586013
0.95597992
0.95622624
0.95636149
0.95635815
0.95621543
0.95596331
0.95583744
0.95003626
0.94995928
0.95012952
0.95036254
0.95035657
0.95010977
0.94993118
0.95000386
0.95010007
0.95005682
0.95023433
0.95044538
0.95043965
0.95021518
0.95002933
0.95006769
0.95016946
0.95015748
0.95034356
0.95053517
0.95052968
0.95032503
0.95013065
0.95013715
0.95023296
0.95024604
0.95044246
0.95061978
0.95061453
0.95042456
0.95021992
0.9502008
0.95029217
0.95032599
0.95053481
0.95070209
0.95069707
0.95051758
0.95030063
0.95026023
0.95035042
0.95040064
0.95062389
0.95078456
0.95077975
0.95060736
0.95037609
0.95031882
0.95040467
0.95047406
0.95071374
0.95087139
0.95086678
0.95069796
0.95045039
0.95037355
0.95043633
0.95057296
0.95082832
0.95098755
0.95098312
0.95081333
0.95055019
0.95040599
0.94534381
0.94528556
0.94543048
0.94563397
0.94562624
0.94540252
0.945247
0.94530021
0.9453833
0.94535073
0.94550264
0.94568851
0.94568114
0.9454755
0.94531289
0.94533964
0.94542684
0.94541833
0.94557782
0.94574797
0.94574094
0.94555153
0.94538129
0.94538321
0.94546673
0.94547792
0.94564599
0.94580441
0.94579769
0.94562059
0.94544175
0.94542322
0.94550405
0.94553197
0.94570999
0.94585999
0.94585356
0.94568554
0.94549677
0.94546079
0.94554134
0.94558312
0.94577248
0.94591673
0.94591056
0.94574904
0.94554899
0.94549848
0.94557731
0.9456348
0.94583656
0.94597779
0.94597187
0.9458142
0.94560184
0.94553505
0.94560006
0.94570487
0.94591788
0.94605945
0.94605369
0.94589668
0.94567315
0.94555881
0.94093514
0.94089061
0.94100009
0.94115715
0.94114795
0.94095969
0.94083689
0.94087524
0.94096062
0.94093508
0.94105099
0.94119512
0.94118642
0.94101173
0.94088212
0.94090051
0.94098902
0.94098138
0.94110396
0.9412365
0.94122828
0.94106589
0.94092934
0.94092879
0.9410155
0.94102245
0.94115198
0.94127575
0.94126794
0.94111519
0.94097149
0.94095534
0.94104066
0.94105983
0.94119694
0.94131433
0.94130687
0.94116156
0.94101014
0.94098077
0.94106612
0.94109528
0.94124071
0.94135373
0.94134655
0.94120685
0.94104706
0.94100672
0.94109105
0.94113119
0.94128534
0.94139605
0.94138908
0.94125313
0.94108463
0.94103247
0.94110663
0.94117881
0.94134043
0.94145128
0.94144437
0.94131003
0.94113404
0.94104947
0.93672017
0.9366818
0.93675525
0.93686316
0.93685411
0.93669485
0.93660546
0.93663601
0.93673718
0.93671225
0.93679158
0.93689076
0.93688242
0.93673273
0.93663651
0.93665241
0.93675638
0.93674399
0.93682931
0.93692064
0.93691296
0.93677213
0.93666917
0.936671
0.93677426
0.93677207
0.93686331
0.93694875
0.93694158
0.93680809
0.93669857
0.93668872
0.93679125
0.93679747
0.93689489
0.93697615
0.93696936
0.93684191
0.93672571
0.93670593
0.93680846
0.93682145
0.93692538
0.93700396
0.93699741
0.93687491
0.93675181
0.93672376
0.93682537
0.93684574
0.93695619
0.93703366
0.93702719
0.93690849
0.93677863
0.93674186
0.93683541
0.93687777
0.93699335
0.93707155
0.93706479
0.93694874
0.93681343
0.93675409
0.93264209
0.93260386
0.93265086
0.93271505
0.93271364
0.93255836
0.93249136
0.93251448
0.93265448
0.93262504
0.93267717
0.93273579
0.93273528
0.9325868
0.93251334
0.93252544
0.93266831
0.93264699
0.93270444
0.93275807
0.93275835
0.93261666
0.9325366
0.93253777
0.93268082
0.93266606
0.93272875
0.93277877
0.93277959
0.93264427
0.93255772
0.9325498
0.93269235
0.93268299
0.93275101
0.93279874
0.93279981
0.9326704
0.93257742
0.93256179
0.93270375
0.9326987
0.93277221
0.93281886
0.93281988
0.93269597
0.93259663
0.9325745
0.93271455
0.93271458
0.93279338
0.93284023
0.93284078
0.932722
0.93261672
0.93258783
0.9327197
0.93273596
0.93281849
0.93286718
0.93286639
0.9327526
0.93264269
0.93259749
0.92868173
0.9286251
0.9286558
0.92868164
0.92870094
0.92850007
0.92881663
0.92846043
0.92869331
0.92863929
0.9286749
0.92869716
0.92871775
0.92851375
0.92846572
0.92848129
0.92870303
0.92865375
0.92869472
0.9287138
0.928736
0.92854293
0.92848572
0.92848674
0.92871006
0.92866585
0.92871218
0.92872937
0.92875327
0.92857182
0.92850115
0.92849281
0.92871542
0.92867623
0.92872797
0.92874456
0.92876966
0.92859848
0.92851639
0.92850044
0.92872013
0.92868566
0.92874285
0.92876002
0.92878515
0.92862397
0.9285322
0.92850949
0.92872408
0.9286953
0.92875757
0.92877664
0.92880057
0.92864931
0.92854964
0.92851985
0.92872338
0.92870949
0.92877497
0.92879786
0.92881867
0.92867761
0.92857219
0.92852869
0.92491065
0.92474064
0.92475419
0.92475101
0.92484041
0.92444155
0.92482561
0.9244534
0.92494926
0.92474368
0.92476726
0.92476164
0.92485202
0.92452286
0.9245085
0.92446757
0.92492286
0.92474582
0.92478113
0.92477346
0.92487295
0.92457553
0.92450161
0.92446905
0.92490756
0.92474934
0.92479374
0.92478512
0.92489408
0.92460446
0.9245116
0.92447531
0.9248933
0.92475332
0.92480546
0.92479727
0.92491136
0.92463319
0.92452468
0.92448187
0.92487885
0.92475775
0.92481673
0.9248103
0.92492531
0.92466099
0.92454014
0.92449012
0.92486571
0.92476336
0.92482796
0.92482485
0.92493676
0.92468823
0.92455844
0.92450069
0.92485365
0.9247734
0.9248411
0.92484392
0.92494698
0.92471808
0.92458168
0.92451217
0.92246182
0.9211399
0.92091711
0.92086425
0.92087423
0.93144609
0.92059254
0.92038861
0.92170427
0.92093906
0.92091906
0.92086617
0.92097987
0.92121935
0.92064335
0.92043575
0.92155533
0.92091647
0.92092711
0.92088175
0.92113099
0.92096193
0.92042489
0.92044062
0.92144265
0.92090519
0.92093729
0.92090252
0.92122854
0.92094074
0.92046064
0.92044728
0.92134474
0.92089844
0.92094856
0.92092251
0.92127394
0.92093177
0.92049769
0.92045348
0.92125753
0.92089477
0.92096051
0.92094185
0.92129963
0.92092889
0.9205361
0.92046352
0.92118459
0.92089429
0.92097304
0.9209614
0.92131374
0.92093145
0.92057655
0.92047912
0.9211332
0.92089885
0.92098771
0.92098397
0.92131684
0.92094064
0.9206212
0.92050311
0.91956036
0.91727649
0.91693669
0.91731862
0.97349595
0.9184311
0.91625406
0.91748306
0.91785579
0.91695778
0.91695844
0.91742052
0.91770594
0.91933793
0.91630662
0.9164441
0.91788267
0.91693771
0.91698639
0.91703412
0.91878518
0.91675342
0.91625307
0.91643619
0.91768108
0.91693407
0.9170139
0.91708414
0.91868731
0.91680378
0.9163077
0.91642435
0.91750256
0.91693725
0.91704434
0.91712816
0.91863309
0.91685858
0.91637122
0.91641949
0.91735665
0.91694385
0.91707658
0.91716113
0.9185819
0.9169188
0.91643917
0.91642131
0.91724321
0.91695367
0.91710988
0.91719372
0.91849941
0.9169836
0.91651498
0.91643178
0.9171774
0.91697058
0.9171465
0.91722667
0.91839522
0.91705412
0.91659809
0.91645816
0.91444658
0.91298824
0.91258287
0.91322711
0.92992915
0.91749247
0.91165427
0.91254592
0.91445801
0.91291385
0.91267673
0.91355807
0.92366841
0.91503216
0.91181929
0.91243771
0.91409275
0.91291136
0.91275672
0.91340877
0.91850782
0.91128247
0.91186824
0.91238165
0.91371438
0.91289373
0.91284252
0.91333154
0.91808324
0.91186618
0.91195451
0.91232969
0.9134541
0.91288534
0.91293368
0.9134057
0.91774827
0.91212745
0.9120621
0.91229435
0.9132541
0.9128864
0.91302586
0.91347842
0.91731213
0.91240693
0.91217285
0.91227591
0.91310271
0.91289856
0.91311583
0.91354548
0.91687725
0.91268242
0.91229807
0.91227727
0.91303031
0.91292505
0.91320233
0.91361122
0.91643352
0.91297615
0.91243535
0.91231065
0.91751531
0.9089239
0.90775616
0.90880143
0.9227157
0.90919615
0.90694278
0.9078729
0.91105361
0.90863732
0.90779585
0.90916693
0.92199163
0.90805906
0.90698251
0.90788895
0.90941175
0.90852795
0.90784405
0.90932562
0.92132684
0.90866865
0.90710112
0.90789171
0.90857303
0.90844227
0.90795794
0.90937263
0.91642498
0.90905371
0.90725743
0.90789995
0.9084089
0.90838521
0.9081321
0.90951898
0.91439227
0.90786931
0.90737165
0.90790312
0.90832523
0.90835522
0.90833272
0.90965743
0.91431725
0.90813686
0.9075215
0.90790518
0.90828994
0.90836402
0.90854269
0.9097766
0.91378863
0.90850525
0.90771696
0.90792123
0.90832219
0.90841775
0.90876015
0.90989562
0.91326715
0.9089079
0.9079453
0.9079747
0.91152931
0.90491499
0.90317334
0.90541849
0.92345222
0.90222117
0.91764984
0.93244171
0.90468338
0.90368238
0.90311129
0.90582426
0.92346798
0.89995134
0.90117842
0.90404594
0.90345894
0.90359847
0.90297962
0.90625393
0.92379532
0.90216286
0.90128455
0.90370116
0.90329768
0.90357193
0.90311243
0.90667815
0.92385235
0.90337655
0.90147421
0.90353411
0.90332344
0.90357581
0.90338835
0.90686011
0.92035407
0.90385071
0.90170681
0.90346723
0.90342555
0.90362241
0.90373542
0.90696387
0.91308344
0.9040081
0.90198922
0.90342034
0.90356585
0.90372129
0.90409988
0.90698301
0.91162317
0.90402299
0.90231491
0.90338678
0.90371728
0.90387985
0.90448683
0.90702222
0.91079086
0.90467556
0.90270763
0.90340664
0.89856979
0.89920584
0.89784113
0.90382402
0.93044823
0.89598949
0.91050568
0.9422548
0.89627554
0.89848833
0.89772633
0.90419765
0.91005292
0.8949184
0.89525144
0.90192023
0.89648917
0.89838838
0.89732362
0.90453945
0.91767093
0.89533218
0.89442898
0.90251154
0.8967556
0.89835151
0.89734617
0.90456905
0.92481857
0.89652313
0.89427823
0.90149865
0.89706689
0.89838793
0.89769138
0.90466088
0.92509291
0.89772413
0.89435826
0.90078306
0.89741652
0.8985245
0.89841363
0.90515962
0.92211806
0.89887513
0.89484232
0.90019662
0.89779749
0.89876943
0.8992177
0.90544343
0.91150704
0.89944999
0.89547965
0.89973725
0.89820072
0.899133
0.90001917
0.90554681
0.90905816
0.89968238
0.89620684
0.89932828
0.89236605
0.89434119
0.89228076
0.91423971
0.9011332
0.89227016
0.90146909
0.89459793
0.89079733
0.89428646
0.8914795
0.90016258
0.89882464
0.89231301
0.89466861
0.89263094
0.89111396
0.89392607
0.89139931
0.90312482
0.89605893
0.8921739
0.89071586
0.89448679
0.8914812
0.89386622
0.89177545
0.90537346
0.89373476
0.89328757
0.8895597
0.89294135
0.89191818
0.89395029
0.89288714
0.9057034
0.89247015
0.89351557
0.8895985
0.89286696
0.892407
0.89413875
0.8938193
0.90692914
0.9332105
0.89442042
0.88976306
0.89265239
0.89291475
0.89443321
0.89489278
0.90831696
0.89433488
0.8951815
0.89029826
0.89250387
0.89339383
0.89487169
0.89625421
0.90826022
0.89720004
0.89488689
0.89107239
0.89245289
0.88520332
0.88129417
0.85923361
1.2238041
0.90245144
0.88148541
0.88607241
0.88120171
0.8857519
0.87960298
0.86121897
1.2433507
0.88412359
0.8804946
0.8908943
0.90423989
0.88482202
0.87810203
0.87047854
1.254083
0.8838577
0.88107983
0.88553618
0.90228106
0.88487256
0.8772366
0.87914556
1.2332679
0.88498282
0.88179271
0.88353322
0.89156146
0.88487598
0.877142
0.88440756
1.2740054
0.88621446
0.8820293
0.88347318
0.88763592
0.88522895
0.87876685
0.89279749
1.2195872
0.89055859
0.88368094
0.8837622
0.88700616
0.88580743
0.8814682
0.89835711
1.0873521
0.89388394
0.88585458
0.88398822
0.88662119
0.88635524
0.88450748
0.90015728
1.0116121
0.89293589
0.88771685
0.88456406
0.88617642
0.87415705
0.87912056
0.83622237
1.2841892
1.236115
0.84300554
0.88352158
0.91619896
0.87512543
0.87736864
0.84632348
1.2978524
1.2614401
0.84514741
0.87714258
0.9166505
0.87355628
0.87619502
0.85668586
1.2941913
1.2490211
0.8516344
0.87419835
0.91918544
0.87537745
0.87562424
0.86731198
1.2920995
1.2826082
0.86286095
0.87211901
0.87080601
0.87609785
0.8749815
0.87704968
1.2930226
1.2402867
0.8688898
0.87144991
0.87065867
0.87697094
0.87452306
0.88735024
1.2940831
1.2837747
0.87991034
0.8721769
0.87131459
0.87778562
0.87545888
0.89771992
1.2865209
1.2362528
0.89837114
0.87442666
0.87202223
0.87866629
0.87814555
0.90623136
1.1932875
1.0622754
0.90470191
0.87763294
0.87309851
0.87449904
0.87196324
0.84388499
1.3021413
1.0320555
0.84283264
0.87965824
0.91376595
0.87212917
0.868973
0.85998992
1.2994806
1.0437097
0.84901763
0.87252527
0.90202819
0.87105315
0.86846692
0.86903319
1.2965195
1.0455782
0.84475564
0.86854451
0.93317565
0.87095957
0.86849838
0.87301059
1.2973064
1.0556893
0.84231321
0.85947953
0.8641225
0.8709661
0.86841246
0.88049424
1.3026797
1.0700968
0.84589639
0.85981253
0.86345389
0.87184627
0.86834852
0.88615182
1.2970002
1.0360522
0.85676284
0.8602839
0.86319759
0.87224129
0.86897462
0.89651462
1.2896219
0.95523515
0.86518759
0.86177037
0.86333753
0.87289898
0.87226664
0.90884345
1.2717095
0.89332039
0.86854844
0.86352226
0.86389409
0.87404073
0.86696561
0.84864111
1.1309003
0.88258814
0.85365033
0.86178238
0.85928034
0.87414668
0.8637432
0.85544533
1.229123
0.88456997
0.85333996
0.86125246
0.85798308
0.87432708
0.86477003
0.88512458
1.1519281
0.90069803
0.86256663
0.85900799
0.86219703
0.87356284
0.86496778
0.85507345
1.1256545
0.88299906
0.84938571
0.85831203
0.85665673
0.87196946
0.86425698
0.86117889
1.1792346
0.8753042
0.8487674
0.85886262
0.85696872
0.87144229
0.86415772
0.88126393
1.1695897
0.88519821
0.84901961
0.85938354
0.85722602
0.87080109
0.86518325
0.89098584
1.0741447
0.88865124
0.85486852
0.85988503
0.85757474
0.87040142
0.86712124
0.89733026
1.0285082
0.88959821
0.85544238
0.86018015
0.85815361
0.86540258
0.86039756
0.87244345
0.89890484
0.89498388
0.85079047
0.85215669
0.85119096
0.86636561
0.8587637
0.87612687
0.87976994
0.9010835
0.85305744
0.85156229
0.85093977
0.86676499
0.85898914
0.86492181
0.9156706
0.9073662
0.85393047
0.85123695
0.85071159
0.86697254
0.85910057
0.86642637
0.96464541
0.87804035
0.85029633
0.85061179
0.85050706
0.86650085
0.85929925
0.87177687
0.8718225
0.87286793
0.84629633
0.85114411
0.850495
0.8658981
0.85948571
0.87440281
0.88221454
0.88332938
0.84645328
0.852218
0.85066328
0.86542804
0.85912632
0.8773193
0.88271352
0.87772436
0.85318268
0.85294593
0.85091379
0.8648212
0.8593661
0.88941407
0.87011436
0.87446523
0.84991127
0.85367347
0.85130018
0.85415936
0.84947732
1.0129457
0.85977911
0.85671885
0.86557569
0.84362112
0.83818375
0.85813688
0.85368385
0.92760208
0.85311554
0.85701712
0.84931802
0.84363028
0.83877971
0.85964132
0.85533651
0.92880603
0.85317757
0.85711794
0.84912706
0.84350285
0.83908069
0.85976348
0.85532711
0.85715941
0.85242316
0.86267422
0.84797229
0.84338321
0.83956645
0.86002602
0.85415955
0.8660285
0.85371591
0.85307521
0.84750874
0.84390196
0.84008882
0.86014077
0.8540155
0.87059119
0.85433858
0.85393288
0.84797911
0.84616171
0.84086884
0.86015885
0.85393082
0.87559454
0.85374063
0.85550567
0.84898414
0.84572137
0.84150998
0.86003136
0.85416744
0.89541737
0.85256107
0.85539573
0.84573134
0.84660655
0.84214231
0.9232277
0.85837543
0.97031082
0.86483989
0.87098516
0.82941904
0.82808933
0.81754611
0.83918404
0.86231266
0.86993327
0.86273349
0.87146872
0.81658197
0.82272472
0.81620547
0.84230081
0.86606357
0.88628466
0.86300201
0.87244022
0.81951716
0.82476486
0.81659647
0.84527323
0.90908504
0.85970579
0.86241291
0.87341706
0.82212633
0.82399606
0.81776041
0.87857771
0.85559082
0.85624976
0.86078209
0.86778043
0.82424001
0.82434903
0.81776484
0.90210265
0.85923977
0.90223373
0.85931462
0.86434512
0.82694923
0.82511847
0.81901125
0.88009909
0.86521585
0.89633016
0.85772362
0.85903677
0.82903299
0.82583439
0.82002969
0.87346255
0.86455698
0.88251844
0.85584724
0.85645208
0.83054938
0.82660071
0.82114684
0.84285766
1.0197402
0.88841908
0.84847183
0.86439913
0.8882002
0.80137284
0.85058556
0.84690111
0.92310351
0.83362795
0.84567227
0.86650588
0.84255124
0.81240749
0.78632482
0.84732323
0.81927166
0.87622802
0.84530843
0.86804328
0.84123084
0.80182004
0.78976068
0.85867754
0.83674729
0.86794115
0.845087
0.86759358
0.83510808
0.80709628
0.79109121
0.89785318
0.83110905
0.84541969
0.84508578
0.86190691
0.83620506
0.81845915
0.79139506
0.91114714
0.84135268
0.91421105
0.84473691
0.85402262
0.82065571
0.80377938
0.79104115
0.83599792
0.85875683
0.86017841
0.84555667
0.8530158
0.81855132
0.80427499
0.79258224
0.87147432
0.83143882
0.85659606
0.84725935
0.85476747
0.81686177
0.80360954
0.79357503
0.83081188
0.97919942
0.80467888
1.0029555
1.3932594
0.97522567
0.7141642
0.81522671
0.8316606
0.83442243
0.80347697
0.98982581
1.2659539
1.0097032
0.71071883
0.72230062
0.8321005
0.85007377
0.81626657
0.97186734
1.2245666
0.93333337
0.73847131
0.72121477
0.8383247
0.86840916
0.83785659
0.96336177
1.1217803
0.76788351
0.75136829
0.72332484
0.8463288
0.8690311
0.86202254
0.94831641
1.2171153
0.73134557
0.75802408
0.72680808
0.84269339
0.8705255
0.87350175
0.93992539
1.1827108
0.76685101
0.72627489
0.7290294
0.80176936
0.88171159
0.87592664
0.96192491
1.4438576
0.81195907
0.73760417
0.73183375
0.79768589
0.87093873
0.87178297
0.95922399
0.94191291
0.81978193
0.7460243
0.73540888
0.71935353
0.83545587
1.278494
0.69900631
3.6333397
1.0931261
0.53969403
0.84977602
0.7409762
0.90553754
1.3752196
0.76463616
3.7373486
0.95272266
0.54440157
0.71279248
0.71035743
0.88466714
1.087151
0.97102395
3.5891468
0.92626028
0.56764208
0.69940166
0.72679716
0.70307994
0.73623427
0.89913048
3.9792357
0.91021134
0.56537466
0.69415347
0.73790612
0.72053284
0.71503219
0.74252023
3.0674852
0.89737495
0.59423529
0.69004943
0.71750236
0.75104727
0.75906631
0.75076371
1.7805905
0.86841686
0.57388402
0.68445186
0.70905693
0.7644963
0.77613484
0.81246233
1.7097746
0.818018
0.61425308
0.67763425
0.72506751
0.77896381
0.79984186
0.91669397
1.4417866
0.63240851
0.64298812
0.67351954
0.69568075
0.53040894
6.34215
65.711574
58.268455
0.33506545
0.53607331
0.53068333
0.60895696
0.40825493
6.7647738
64.192469
61.415951
1.2626708
0.37569687
0.4870659
0.61641897
0.6222663
3.40391
58.773746
62.964588
1.8437357
0.42475634
0.47713218
0.58151688
0.73550969
2.0040545
50.283547
63.512895
2.6146603
0.51136119
0.46606952
0.60166583
0.81891179
2.0981628
47.260951
62.751097
2.1857648
0.58514245
0.46348186
0.57404726
0.93683245
2.4388806
33.004463
64.241913
0.9437721
0.61539397
0.45644639
0.70502713
1.1163541
2.1043516
24.244768
54.686383
0.59922744
0.59699006
0.44599011
0.73992117
1.388331
0.59071356
14.584361
51.987384
1.6528828
0.63546388
0.46070698
0.65336043
-0.48445385
14.54507
70.033331
61.812179
18.063121
-0.92150384
0.52659489
0.55285695
-0.82335932
17.920265
69.617211
61.489917
20.839225
-1.2217324
0.37850337
0.44577415
-0.21536478
16.970786
68.528694
62.204431
19.045725
-0.51675006
0.15364058
0.3544401
0.26491623
16.077133
67.398373
61.747398
18.700891
-0.11489938
-0.082177963
0.26983867
0.6494674
16.151417
66.92504
60.601363
16.157004
0.12762828
-0.30084083
0.21012995
0.94458255
14.180447
62.80469
61.770114
29.02201
0.5362347
-0.31524838
0.17533741
1.1004079
15.016086
74.708703
64.17659
38.982273
0.99032911
-0.12420854
0.28343691
1.372625
14.223368
60.478728
40.011989
38.964599
1.8456081
0.3396811
0.58819141
0.45613495
1.9462756
4.6557858
33.203251
4.4035886
-0.59287757
0.8230526
0.57409826
0.3175106
1.7875232
4.6056722
32.439506
3.9512982
-0.71045576
0.72088394
0.54930105
0.30744432
1.850325
3.8889968
68.897363
5.8546554
-0.62003675
0.60754289
0.50283999
0.26765533
2.2541869
4.2632202
30.045859
7.3543797
-0.54406829
0.45956069
0.44449528
0.20399464
2.7645938
5.4083255
24.492734
7.0597014
-0.5698678
0.26794467
0.36152968
0.15310473
3.6500033
4.0748376
25.082851
7.7354867
-0.51302106
0.083961901
0.29000039
0.10122675
4.2263046
3.5646414
26.9969
6.6464939
-0.27718322
0.056801443
0.25771778
0.21550467
5.5535195
3.2952693
13.495391
5.8004413
0.060663562
0.15024372
0.60790761
0.46055947
0.77941601
0.67665706
8.3622341
0.20650343
0.14491598
0.60997373
0.60554237
0.46943103
0.77498437
0.83397418
7.626787
0.2112538
0.087197786
0.5382617
0.5926315
0.46699115
0.77745667
0.89793727
5.8048268
0.33208539
0.065518517
0.51203341
0.58481178
0.47468671
0.7809628
0.79801342
6.4342446
0.27927095
0.065424719
0.484638
0.57355256
0.48178299
0.77373148
0.6663618
6.213348
0.27929163
0.043916524
0.44862231
0.55910265
0.48601848
0.77005439
0.65197253
6.3020161
0.34362642
0.030219608
0.3957546
0.53795548
0.48603666
0.7758569
0.56711814
4.7100193
0.36294656
0.040915033
0.3421137
0.52228652
0.52243646
0.80111166
0.56150189
3.5469312
0.38861977
0.06237081
0.30626059
0.55550185
0.49994839
0.60833447
0.44451272
0.51304951
0.42370901
0.45143518
0.60218383
0.55872828
0.50005627
0.60525902
0.43937388
0.50771879
0.45464155
0.48167907
0.54358254
0.55625895
0.50531813
0.60211757
0.43629732
0.51158868
0.44018294
0.40630762
0.55999859
0.55268446
0.49707394
0.59851721
0.43958291
0.5065461
0.44067079
0.4067407
0.54806257
0.54733652
0.49790882
0.59448181
0.45317075
0.49224346
0.431507
0.40577356
0.54939195
0.54335324
0.49364642
0.58869813
0.45614822
0.50519585
0.42461291
0.405051
0.52557393
0.53709307
0.48948876
0.58086224
0.44936953
0.50417539
0.42072865
0.40764421
0.5105299
0.53215548
0.49673902
0.56426022
0.44529335
0.50337503
0.41593042
0.41125171
0.49707281
0.5191343
0.49509464
0.55709815
0.50582469
0.59789389
0.44092638
0.5144108
0.48166609
0.51914316
0.49365745
0.55754255
0.50414118
0.60219983
0.4388524
0.48261059
0.51970266
0.53464002
0.49996971
0.55679224
0.50269209
0.60011529
0.44768352
0.54928104
0.48746256
0.52084176
0.49366155
0.55548257
0.50114869
0.58678501
0.48558988
0.42399486
0.51221391
0.51803013
0.49462512
0.55351165
0.49615631
0.57400851
0.41237065
0.42937436
0.50202698
0.51613465
0.49434149
0.54909562
0.49049469
0.56335316
0.42607538
0.42845213
0.49305536
0.51394493
0.49322075
0.54328317
0.53669731
0.55394031
0.43005671
0.42778011
0.48811716
0.51099057
0.49346871
0.5347517
0.47014268
0.54839143
0.43046474
0.42916009
0.48188667
0.47177334
0.46915435
0.497193
0.46747214
0.50781621
0.42503995
0.51200653
0.54543155
0.47080155
0.46735658
0.49506953
0.46753897
0.51232435
0.42470787
0.49285281
0.52334913
0.47729557
0.46793622
0.50793061
0.46849616
0.51408784
0.4230334
0.53456731
0.60883109
0.47952191
0.46768278
0.49225408
0.4687609
0.51086641
0.51506594
0.5327978
0.49049944
0.4751637
0.46751932
0.49105608
0.47061094
0.50663193
0.48415625
0.46350678
0.51086824
0.47459192
0.46724902
0.48856908
0.47269951
0.51239534
0.47205168
0.48201743
0.50517736
0.47217604
0.46618108
0.48502843
0.47639003
0.50377618
0.47656804
0.47905798
0.48734813
0.46977241
0.46494439
0.48047037
0.48092876
0.49879639
0.47161697
0.47118713
0.48146834
0.40594238
0.42833501
0.45806922
0.45214246
0.46195247
0.47380445
0.49163552
0.4981398
0.40545359
0.43120421
0.45894019
0.45260085
0.46316705
0.47281881
0.48962097
0.495664
0.4053261
0.43319016
0.46032049
0.45315905
0.46397095
0.4730074
0.49033429
0.50238252
0.41633602
0.49008491
0.46514055
0.4533977
0.4644578
0.47834894
0.50097758
0.55246205
0.43140897
0.47334364
0.47080271
0.45130964
0.46324507
0.51810367
0.50180647
0.45525587
0.51196665
0.45328011
0.45539001
0.4508115
0.46238729
0.49811094
0.46314623
0.4754454
0.47296338
0.44435738
0.45812258
0.44943292
0.46296997
0.49004867
0.46519571
0.45018422
0.45989498
0.44408693
0.45635547
0.45053278
0.4594765
0.514732
0.48928303
0.43875572
0.41635871
0.43743929
0.43672043
0.4325693
0.44108587
0.44374742
0.45902567
0.45427376
0.41718284
0.43708459
0.4372068
0.43341475
0.44216755
0.44379266
0.4585627
0.45359748
0.41718819
0.44023551
0.43772889
0.4342281
0.44322317
0.44380117
0.45852588
0.45143007
0.42284754
0.47247225
0.4382925
0.43467435
0.44401328
0.44453226
0.46208152
0.44981924
0.43849042
0.4626625
0.43864141
0.43414009
0.44405678
0.44616711
0.46676864
0.44252951
0.48357707
0.45971234
0.44148004
0.4330121
0.44274486
0.4498475
0.47344719
0.48148069
0.52561496
0.44897973
0.46033356
0.43134471
0.44078422
0.46072341
0.47796916
0.45707991
0.53615371
0.44240964
0.43383049
0.43018833
0.4390418
0.44773332
0.46565442
0.44702709
0.40356925
0.44400179
0.42186528
0.41499696
0.42346319
0.42544069
0.43422799
0.42807476
0.4052057
0.43114143
0.41617659
0.41582404
0.42439819
0.42585879
0.4345249
0.42922997
0.40805159
0.4352663
0.41465364
0.41658077
0.42542593
0.42630459
0.43499075
0.42984455
0.40884853
0.44058519
0.41453347
0.41751051
0.42628905
0.42666306
0.43636314
0.42974121
0.41180305
0.45782161
0.41165504
0.4176955
0.42691049
0.42687737
0.43788988
0.4284003
0.41678327
0.45571854
0.41247112
0.41758468
0.42718101
0.42639411
0.44002851
0.43080754
0.43965751
0.44736147
0.41747421
0.41725439
0.42687827
0.42614768
0.44312653
0.48247647
0.45820063
0.46243501
0.41168112
0.41691665
0.42634089
0.42599592
0.46030464
0.42532915
0.38748795
0.45097834
0.42124152
0.40100484
0.40815173
0.40996045
0.41507426
0.41564356
0.38807216
0.43838251
0.40037441
0.40147608
0.40887166
0.41043655
0.41519982
0.41599089
0.38919027
0.44405507
0.43024182
0.40096993
0.40971468
0.41091609
0.4152781
0.41620059
0.47003161
0.44718624
0.40614568
0.40176361
0.41043174
0.41126015
0.41521505
0.4161709
0.42199324
0.4626779
0.40162542
0.40172595
0.41095353
0.41146903
0.41500141
0.41588988
0.42577519
0.55869852
0.39696249
0.40050095
0.41124206
0.41158428
0.41466442
0.41539398
0.44225443
0.56116138
0.38450121
0.39936641
0.41134059
0.41163786
0.41428385
0.4145735
0.43977689
0.47355977
0.38218234
0.39948989
0.41127864
0.41176056
0.41392836
0.41409481
0.38656557
0.46098615
0.40537803
0.39847463
0.39745687
0.39876147
0.40303785
0.40397293
0.38678135
0.45461089
0.39017929
0.39801293
0.39805299
0.39914436
0.40310534
0.40413696
0.38811587
0.45906016
0.42173339
0.39893971
0.39868026
0.39949282
0.40315635
0.40424733
0.43846067
0.46106972
0.40087679
0.4020038
0.3992279
0.39970789
0.40312703
0.40426093
0.41281816
0.4751213
0.39568139
0.39881567
0.399609
0.39979126
0.40300864
0.4041681
0.41474296
0.52026684
0.39854792
0.39697215
0.39974095
0.3997501
0.40280442
0.40398902
0.41191229
0.5485396
0.38420346
0.39470241
0.3997212
0.3996153
0.40253336
0.40376057
0.42121828
0.45485446
0.38228802
0.39475024
0.39966777
0.39925604
0.40207487
0.40363654
0.39556547
0.44554418
0.38778692
0.39954387
0.39219993
0.39532879
0.39685172
0.39610839
0.39644755
0.44193222
0.38492099
0.40003759
0.39263836
0.39552855
0.39697862
0.39625447
0.39842254
0.44173216
0.38292528
0.40099927
0.39321206
0.39576279
0.39714283
0.39634048
0.40068738
0.44381108
0.43209224
0.40600623
0.39350816
0.39595148
0.39732187
0.39633832
0.41708327
0.45435774
0.40475386
0.41983027
0.39412633
0.39610111
0.39753257
0.39625107
0.40613724
0.4932889
0.41352548
0.39687304
0.39373655
0.39619269
0.39781678
0.39609306
0.43232136
0.50757666
0.40126138
0.39846463
0.39802075
0.39660032
0.39881282
0.39614633
0.41495092
0.47611166
0.4013231
0.39906574
0.39374779
0.39866182
0.40119237
0.39650043
0.3996208
0.42586306
0.39085883
0.38533477
0.38689826
0.38895491
0.39069208
0.39202534
0.40055525
0.42503909
0.38990498
0.38573054
0.38713303
0.38903539
0.39063457
0.39199328
0.40794832
0.42456263
0.38888705
0.38713315
0.3873526