/*--------------------------------*- C++ -*----------------------------------*\
  =========                 |
  \\      /  F ield         | OpenFOAM: The Open Source CFD Toolbox
   \\    /   O peration     | Website:  https://openfoam.org
    \\  /    A nd           | Version:  13
     \\/     M anipulation  |
\*---------------------------------------------------------------------------*/
FoamFile
{
    format      ascii;
    class       surfaceScalarField;
    location    "0.04";
    object      phi;
}
// * * * * * * * * * * * * * * * * * * * * * * * * * * * * * * * * * * * * * //

dimensions      [0 3 -1 0 0 0 0];

internalField   nonuniform List<scalar> 
150720
(
1.5228795e-11
2.6794456e-09
8.9947281e-10
-2.6821795e-15
-1.7155749e-11
2.6403602e-09
9.8616886e-10
-1.8337543e-11
2.644335e-09
9.5099132e-10
1.8832973e-14
2.6456073e-09
9.3018088e-10
1.8373374e-11
2.6456061e-09
9.3018395e-10
1.7184171e-11
2.6443328e-09
9.5100094e-10
-1.5213556e-11
2.6403582e-09
9.8618409e-10
2.6794432e-09
8.9948897e-10
-1.2126937e-15
-4.3677126e-11
4.168152e-09
2.0150896e-09
-1.5542414e-14
-1.0117817e-10
4.0047548e-09
2.1532098e-09
-6.8911349e-11
3.9937542e-09
2.0784173e-09
4.4032216e-14
3.9996719e-09
2.0370832e-09
6.8994191e-11
3.9996691e-09
2.0370901e-09
1.0124458e-10
3.9937471e-09
2.0784386e-09
4.3717763e-11
4.0047438e-09
2.1532444e-09
4.1681426e-09
2.0151295e-09
-7.8629815e-15
-7.8546672e-11
4.8683037e-09
2.7044898e-09
-3.2854138e-14
-1.4531001e-10
4.5696457e-09
2.8279344e-09
-9.4785649e-11
4.5377797e-09
2.7315121e-09
6.0565085e-14
4.5492532e-09
2.6816345e-09
9.489986e-11
4.5492488e-09
2.681643e-09
1.4540323e-10
4.537767e-09
2.7315387e-09
7.8604634e-11
4.5696259e-09
2.8279786e-09
4.868282e-09
2.7045442e-09
-1.6929243e-14
-9.4628429e-11
5.0413298e-09
3.1136755e-09
-5.244251e-14
-1.6015306e-10
4.6337866e-09
3.1934044e-09
-1.0346756e-10
4.5858782e-09
3.0872366e-09
7.0943663e-14
4.6020137e-09
3.0357216e-09
1.0360185e-10
4.6020081e-09
3.0357305e-09
1.6026475e-10
4.5858608e-09
3.087264e-09
9.4700882e-11
4.6337595e-09
3.1934508e-09
5.0412943e-09
3.1137364e-09
-2.7175183e-14
-9.9433962e-11
4.8779798e-09
3.3208363e-09
-7.3114818e-14
-1.5881864e-10
4.401548e-09
3.3496026e-09
-1.0282001e-10
4.3457674e-09
3.2420915e-09
7.7132811e-14
4.3642026e-09
3.1928933e-09
1.0296666e-10
4.3641961e-09
3.1929018e-09
1.5894294e-10
4.3457466e-09
3.2421173e-09
9.9518651e-11
4.4015163e-09
3.3496468e-09
4.8779323e-09
3.3208979e-09
-3.7901882e-14
-9.5662799e-11
4.5156424e-09
3.3820325e-09
-9.4235474e-14
-1.4808358e-10
4.0132637e-09
3.364643e-09
-9.6859888e-11
3.9570051e-09
3.2614766e-09
8.0666655e-14
3.9745744e-09
3.2166256e-09
9.7013996e-11
3.9745675e-09
3.2166333e-09
1.4821663e-10
3.9569823e-09
3.2614996e-09
9.5758012e-11
4.0132301e-09
3.3646828e-09
4.5155862e-09
3.3820909e-09
-4.8722519e-14
-8.5334308e-11
4.0513715e-09
3.3396175e-09
-1.1551681e-13
-1.3228829e-10
3.5636479e-09
3.2864666e-09
-8.7951085e-11
3.5113009e-09
3.1912637e-09
8.260804e-14
3.5248195e-09
3.1516179e-09
8.8109683e-11
3.5248124e-09
3.1516248e-09
1.3242774e-10
3.5112772e-09
3.1912838e-09
8.5438828e-11
3.5636147e-09
3.2865011e-09
4.0513106e-09
3.3396708e-09
-5.9477531e-14
-6.8564452e-11
3.2365073e-09
-1.3470809e-13
3.5394187e-09
-1.1557367e-10
3.157375e-09
3.1091375e-09
-7.826508e-11
3.0712665e-09
3.0585812e-09
8.35024e-14
3.0367685e-09
3.0655578e-09
7.8426583e-11
3.0367746e-09
3.0655502e-09
1.1571871e-10
3.0712837e-09
3.0585567e-09
6.8676287e-11
3.1574042e-09
3.1091083e-09
3.2365545e-09
-6.8972185e-14
3.5393567e-09
4.4423079e-11
4.368991e-10
4.1815454e-10
-3.9061036e-15
3.7352524e-11
4.5804524e-10
5.3519418e-10
1.8718686e-11
4.39641e-10
5.2998415e-10
3.781718e-14
4.3484918e-10
5.1401257e-10
-1.8647689e-11
4.3484821e-10
5.1402125e-10
-3.7296787e-11
4.3963766e-10
5.3001238e-10
-4.4394059e-11
4.5804371e-10
5.3523766e-10
4.3690094e-10
4.1819578e-10
-1.8069262e-15
8.9464603e-11
1.1520974e-09
1.210459e-09
-3.2332169e-14
7.1864881e-11
1.1737439e-09
1.4551108e-09
3.3721184e-11
1.1266356e-09
1.4295664e-09
9.6817897e-14
1.1159897e-09
1.3895671e-09
-3.3539339e-11
1.1159872e-09
1.3895873e-09
-7.1719776e-11
1.1266245e-09
1.4296322e-09
-8.938426e-11
1.173736e-09
1.4552166e-09
1.1520936e-09
1.2105692e-09
-1.6675642e-14
1.0812718e-10
1.8614127e-09
1.8871223e-09
-7.4952913e-14
8.1663636e-11
1.8523477e-09
2.1757942e-09
3.5859633e-11
1.7762029e-09
2.1277489e-09
1.3976985e-13
1.761176e-09
2.072168e-09
-3.5596106e-11
1.7611719e-09
2.0721942e-09
-8.1449018e-11
1.7761816e-09
2.1278345e-09
-1.0800102e-10
1.8523302e-09
2.1759364e-09
1.8613949e-09
1.8872812e-09
-3.9297409e-14
1.1020466e-10
2.4430746e-09
2.4219344e-09
-1.2546927e-13
7.7563823e-11
2.3816902e-09
2.6967028e-09
3.142194e-11
2.2812248e-09
2.6283566e-09
1.6930544e-13
2.2637377e-09
2.5644126e-09
-3.1101235e-11
2.2637324e-09
2.5644406e-09
-7.7297517e-11
2.2811934e-09
2.6284485e-09
-1.1003859e-10
2.3816621e-09
2.6968601e-09
2.4430377e-09
2.4221212e-09
-6.6223223e-14
1.0292093e-10
2.8488348e-09
2.8123351e-09
-1.7994709e-13
6.746078e-11
2.7276094e-09
3.0391436e-09
2.4606621e-11
2.6110927e-09
2.9550777e-09
1.8869728e-13
2.5927208e-09
2.8883281e-09
-2.4247349e-11
2.5927149e-09
2.8883553e-09
-6.7156861e-11
2.611053e-09
2.9551672e-09
-1.0272043e-10
2.7275718e-09
3.0393007e-09
2.848778e-09
2.8125324e-09
-9.5240869e-14
9.109387e-11
3.0746298e-09
3.0653796e-09
-2.3602103e-13
5.559298e-11
2.8980174e-09
3.2297359e-09
1.7559497e-11
2.7750904e-09
3.1355124e-09
2.0099587e-13
2.7567763e-09
3.0699287e-09
-1.7174673e-11
2.75677e-09
3.0699539e-09
-5.5261812e-11
2.775045e-09
3.1355948e-09
-9.0863584e-11
2.897973e-09
3.2298834e-09
3.0745555e-09
3.0655747e-09
-1.2497071e-13
7.7509776e-11
3.142216e-09
3.1948138e-09
-2.9226887e-13
4.3784336e-11
2.9213014e-09
3.2969081e-09
1.1176198e-11
2.8011056e-09
3.1978567e-09
2.0857611e-13
2.783312e-09
3.1360498e-09
-1.0774278e-11
2.7833053e-09
3.1360723e-09
-4.3433313e-11
2.801058e-09
3.1979299e-09
-7.7253793e-11
2.9212536e-09
3.297041e-09
3.1421286e-09
3.1949985e-09
-1.5458804e-13
6.392513e-11
3.2104773e-09
-3.4405173e-13
3.104665e-09
3.2995976e-11
3.2628878e-09
2.8467177e-09
5.822543e-12
3.1636344e-09
2.7359112e-09
2.1298201e-13
3.1073281e-09
2.718362e-09
-5.4062249e-12
3.1073479e-09
2.7183512e-09
-3.262971e-11
3.1636981e-09
2.7358671e-09
-6.3645528e-11
3.2630038e-09
2.8466698e-09
3.2106469e-09
-1.8156332e-13
3.1045723e-09
3.6664981e-11
9.551071e-11
2.859819e-10
-3.0543398e-15
3.7968942e-11
1.2490219e-10
4.0898803e-10
2.054725e-11
1.1962157e-10
4.2778428e-10
5.2498034e-14
1.1499506e-10
4.1951227e-10
-2.0448274e-11
1.1499303e-10
4.1952899e-10
-3.7892591e-11
1.1961766e-10
4.2783904e-10
-3.6627043e-11
1.249021e-10
4.0907001e-10
9.55135e-11
2.8605665e-10
-1.4163625e-15
8.4266148e-11
3.7239519e-10
8.4934966e-10
-4.1292027e-14
8.9167142e-11
4.3930464e-10
1.1358074e-09
4.8025059e-11
4.1907303e-10
1.171257e-09
1.3731669e-13
4.038658e-10
1.1485841e-09
-4.7766516e-11
4.0386089e-10
1.1486232e-09
-8.8963516e-11
4.1906045e-10
1.1713864e-09
-8.4157309e-11
4.3930325e-10
1.1360092e-09
3.7239774e-10
8.495498e-10
-2.2103762e-14
1.1535654e-10
7.6539644e-10
1.3788687e-09
-1.0418567e-13
1.2065221e-10
8.5594714e-10
1.753856e-09
6.4227137e-11
8.1432769e-10
1.7889193e-09
2.0141686e-13
7.8597131e-10
1.7540883e-09
-6.3846793e-11
7.8596365e-10
1.7541396e-09
-1.2034597e-10
8.143033e-10
1.7890908e-09
-1.1518164e-10
8.5594233e-10
1.754133e-09
7.6539311e-10
1.3791611e-09
-5.6937192e-14
1.3211856e-10
1.2003346e-09
1.8550599e-09
-1.8223777e-13
1.3502641e-10
1.2912305e-09
2.2585116e-09
7.0961181e-11
1.2247741e-09
2.2819755e-09
2.4721301e-13
1.1834883e-09
2.2376096e-09
-7.0492403e-11
1.1834783e-09
2.2376655e-09
-1.3464115e-10
1.2247367e-09
2.2821638e-09
-1.3188424e-10
1.2912193e-09
2.2588262e-09
1.2003194e-09
1.8554112e-09
-1.0052566e-13
1.3792527e-10
1.6169452e-09
2.2580678e-09
-2.6857494e-13
1.3686902e-10
1.6854909e-09
2.6459394e-09
7.0972185e-11
1.5936569e-09
2.6520917e-09
2.785074e-13
1.5413615e-09
2.6011485e-09
-7.044165e-11
1.5413499e-09
2.6012038e-09
-1.3642438e-10
1.5936072e-09
2.6522795e-09
-1.3763855e-10
1.6854711e-09
2.6462631e-09
1.6169137e-09
2.2584485e-09
-1.4892482e-13
1.3504224e-10
1.9735775e-09
2.5740637e-09
-3.5855351e-13
1.2971715e-10
2.0020658e-09
2.9184861e-09
6.6440251e-11
1.8866286e-09
2.9058176e-09
2.9915668e-13
1.8261985e-09
2.8512328e-09
-6.5867759e-11
1.826186e-09
2.8512847e-09
-1.2922838e-10
1.8865685e-09
2.9059941e-09
-1.3470963e-10
2.0020364e-09
2.9187994e-09
1.9735276e-09
2.5744506e-09
-1.9937191e-13
1.2476051e-10
2.2481957e-09
2.7958844e-09
-4.4920263e-13
1.1625221e-10
2.223197e-09
3.0842851e-09
5.9040107e-11
2.0878515e-09
3.0538458e-09
3.1233808e-13
2.0227212e-09
2.9982549e-09
-5.8439783e-11
2.0227086e-09
2.9983019e-09
-1.1573077e-10
2.0877841e-09
3.0540053e-09
-1.2438798e-10
2.2231591e-09
3.0845755e-09
2.2481274e-09
2.7962607e-09
-2.5007852e-13
1.0945019e-10
2.9245285e-09
-5.3350299e-13
2.4252277e-09
9.9669362e-11
3.1575973e-09
2.3382684e-09
5.0557463e-11
3.1109639e-09
2.1896339e-09
3.2017001e-13
3.0565849e-09
2.1237017e-09
-4.9939068e-11
3.0566265e-09
2.1236892e-09
-9.9124354e-11
3.1111039e-09
2.1895636e-09
-1.0904031e-10
3.1578571e-09
2.3382218e-09
2.9248829e-09
-2.9703912e-13
2.4251481e-09
1.7170064e-11
4.1023999e-11
2.2778835e-10
-5.0979651e-16
2.1857127e-11
5.6486771e-11
3.478142e-10
1.3115929e-11
5.3950705e-11
3.8257477e-10
7.1117433e-14
4.9025098e-11
3.8353198e-10
-1.2981991e-11
4.9022916e-11
3.8355918e-10
-2.175639e-11
5.3948047e-11
3.8266539e-10
-1.7122624e-11
5.6491417e-11
3.4794483e-10
4.1030477e-11
2.2790311e-10
4.4223594e-16
4.7835033e-11
1.5372793e-10
6.888581e-10
-4.7411212e-14
6.0229754e-11
2.0134761e-10
9.7855182e-10
3.5871998e-11
1.9232347e-10
1.057242e-09
1.8757754e-13
1.7642094e-10
1.0568727e-09
-3.5519396e-11
1.7641609e-10
1.056937e-09
-5.9957624e-11
1.9231374e-10
1.0574589e-09
-4.7695351e-11
2.0136062e-10
9.7887777e-10
1.5374141e-10
6.8916923e-10
-2.5716464e-14
7.3276751e-11
3.3065492e-10
1.1287964e-09
-1.3147473e-13
9.0745453e-11
4.128272e-10
1.5249077e-09
5.372252e-11
3.9279557e-10
1.6254702e-09
2.7686085e-13
3.6276172e-10
1.6211931e-09
-5.3200663e-11
3.6275459e-10
1.6212786e-09
-9.0332709e-11
3.9277492e-10
1.6257617e-09
-7.3048598e-11
4.1284841e-10
1.5253611e-09
3.3067143e-10
1.1292561e-09
-7.3560886e-14
9.3265606e-11
5.5770216e-10
1.5349875e-09
-2.4037172e-13
1.1279687e-10
6.65993e-10
1.9858145e-09
6.6334697e-11
6.3018277e-10
2.0910505e-09
3.4160014e-13
5.851504e-10
2.081214e-09
-6.5688151e-11
5.8514154e-10
2.0813083e-09
-1.1227408e-10
6.3014902e-10
2.0913756e-09
-9.2956203e-11
6.6601906e-10
1.9863376e-09
5.5771637e-10
1.5355465e-09
-1.3641944e-13
1.0735788e-10
8.1249879e-10
1.8962772e-09
-3.638939e-13
1.2641698e-10
9.3187609e-10
2.3609972e-09
7.3885721e-11
8.7649843e-10
2.4583073e-09
3.8652103e-13
8.1756568e-10
2.4422324e-09
-7.3150812e-11
8.1755566e-10
2.4423271e-09
-1.258103e-10
8.7645106e-10
2.4586369e-09
-1.0697588e-10
9.3190236e-10
2.3615454e-09
8.1250536e-10
1.8968919e-09
-2.0833178e-13
1.1529179e-10
1.0695665e-09
2.2021986e-09
-4.9448341e-13
1.3207252e-10
1.1825092e-09
2.6510723e-09
7.6873534e-11
1.1054772e-09
2.7320379e-09
4.1660957e-13
1.0353371e-09
2.7099184e-09
-7.6077732e-11
1.0353265e-09
2.7100082e-09
-1.3140264e-10
1.1054173e-09
2.7323528e-09
-1.1484564e-10
1.1825314e-09
2.6516134e-09
1.0695611e-09
2.2028339e-09
-2.846761e-13
1.1690853e-10
1.3050589e-09
2.4441104e-09
-6.2690889e-13
1.3075674e-10
1.3940705e-09
2.8588756e-09
7.6068498e-11
1.295701e-09
2.9183102e-09
4.3608653e-13
1.218225e-09
2.8909994e-09
-7.5231777e-11
1.2182146e-09
2.8910816e-09
-1.3003946e-10
1.2956312e-09
2.918599e-09
-1.1640632e-10
1.3940864e-09
2.8593873e-09
1.3050382e-09
2.4447395e-09
-3.6216024e-13
1.1265686e-10
2.6155681e-09
-7.5062224e-13
1.5021131e-09
1.2415884e-10
2.9899547e-09
1.5502111e-09
7.249241e-11
3.0244088e-09
1.4339226e-09
4.4779097e-13
2.9932694e-09
1.3535851e-09
-7.1628799e-11
2.9933429e-09
1.3535748e-09
-1.2340664e-10
3.0246655e-09
1.4338474e-09
-1.1210214e-10
2.990422e-09
1.550217e-09
2.6161716e-09
-4.3447326e-13
1.5020818e-09
1.0749208e-11
2.1139752e-11
1.9589573e-10
3.6621377e-15
1.3925161e-11
3.3511487e-11
3.1112676e-10
8.5237358e-12
3.2240206e-11
3.5573599e-10
9.7869874e-14
2.752981e-11
3.6442804e-10
-8.3397902e-12
2.7527975e-11
3.6446887e-10
-1.3790325e-11
3.2237708e-11
3.5587822e-10
-1.0688565e-11
3.3518589e-11
3.1132448e-10
2.1145956e-11
1.9606503e-10
3.5563061e-15
2.9297674e-11
8.627415e-11
5.9447924e-10
-5.3203291e-14
3.8979112e-11
1.2244e-10
8.7994187e-10
2.431085e-11
1.1691181e-10
9.8723863e-10
2.5906858e-13
1.0160454e-10
1.0068497e-09
-2.3824687e-11
1.0160117e-10
1.0069476e-09
-3.8611766e-11
1.1690105e-10
9.8758266e-10
-2.911577e-11
1.2246004e-10
8.8044032e-10
8.6286064e-11
5.9494235e-10
-2.8993104e-14
4.5449692e-11
1.9022068e-10
9.7956213e-10
-1.6194982e-13
6.0582523e-11
2.5285059e-10
1.3793643e-09
3.811135e-11
2.3980773e-10
1.5250454e-09
3.8339021e-13
2.1091437e-10
1.5496113e-09
-3.7389817e-11
2.1091017e-10
1.5497428e-09
-6.0022463e-11
2.3978329e-10
1.5255121e-09
-4.5149545e-11
2.5288456e-10
1.3800636e-09
1.9023385e-10
9.8025083e-10
-9.210474e-14
5.9342938e-11
3.2498532e-10
1.3411881e-09
-3.0822809e-13
7.8380956e-11
4.106634e-10
1.8089637e-09
4.9496533e-11
3.8674605e-10
1.9729966e-09
4.7412189e-13
3.4343926e-10
1.9977115e-09
-4.8600547e-11
3.4343469e-10
1.9978585e-09
-7.7668745e-11
3.8670474e-10
1.9735224e-09
-5.8932787e-11
4.1070824e-10
1.809778e-09
3.2499491e-10
1.3420311e-09
-1.785275e-13
7.0840098e-11
4.8072076e-10
1.6701799e-09
-4.7826232e-13
9.212599e-11
5.8161442e-10
2.1687603e-09
5.8257947e-11
5.4374547e-10
2.3351759e-09
5.3752223e-13
4.8691553e-10
2.3564766e-09
-5.7237548e-11
4.8691088e-10
2.3566259e-09
-9.1296946e-11
5.4368632e-10
2.3357147e-09
-7.0330692e-11
5.8166504e-10
2.1696223e-09
4.8072256e-10
1.6711137e-09
-2.8010034e-13
7.9536717e-11
6.456843e-10
1.9583595e-09
-6.6118123e-13
1.0154682e-10
7.5104469e-10
2.4596319e-09
6.4290239e-11
6.9693422e-10
2.6161057e-09
5.8025258e-13
6.2890689e-10
2.631637e-09
-6.3183683e-11
6.2890241e-10
2.6317806e-09
-1.0062931e-10
6.9685842e-10
2.6166263e-09
-7.8939095e-11
7.5109576e-10
2.4604924e-09
6.4567493e-10
1.9593325e-09
-3.9002245e-13
8.4919439e-11
8.0696627e-10
2.1987578e-09
-8.4887532e-13
1.0668319e-10
9.0439373e-10
2.6837628e-09
6.7696612e-11
8.3334369e-10
2.8208873e-09
6.0800802e-13
7.5759335e-10
2.8294016e-09
-6.6532069e-11
7.5758949e-10
2.8295346e-09
-1.0569915e-10
8.3325429e-10
2.8213702e-09
-8.4244512e-11
9.0444167e-10
2.6845868e-09
8.0694266e-10
2.1997303e-09
-5.0303172e-13
8.6674416e-11
2.3859556e-09
-1.0260683e-12
9.5093046e-10
1.0793598e-10
2.8451385e-09
1.0279483e-09
6.8756155e-11
2.9552295e-09
9.4170285e-10
6.245717e-13
2.9565167e-09
8.6247766e-10
-6.755349e-11
2.9566369e-09
8.624735e-10
-1.069029e-10
2.9556634e-09
9.4160581e-10
-8.5927584e-11
2.845901e-09
1.0279874e-09
2.3868978e-09
-6.0965896e-13
9.5089853e-10
6.2730558e-12
1.289787e-11
1.7671298e-10
1.1825413e-14
8.2681055e-12
2.1595617e-11
2.8753609e-10
5.131714e-12
2.0875587e-11
3.379968e-10
1.3492688e-13
1.6922075e-11
3.5250275e-10
-4.8779965e-12
1.6921934e-11
3.5255986e-10
-8.0876873e-12
2.0871473e-11
3.3821644e-10
-6.1955822e-12
2.1601341e-11
2.8783103e-10
1.2899499e-11
1.769612e-10
8.7553311e-15
1.7469203e-11
5.1672529e-11
5.3829206e-10
-5.6684919e-14
2.3999161e-11
7.848123e-11
8.165263e-10
1.5453905e-11
7.5423144e-11
9.4123633e-10
3.5801748e-13
6.2613978e-11
9.7625373e-10
-1.478151e-11
6.2616837e-11
9.7639223e-10
-2.3503804e-11
7.5406462e-11
9.4176997e-10
-1.7233559e-11
7.8497408e-11
8.1727401e-10
5.1666527e-11
5.3897355e-10
-3.1784259e-14
2.7480451e-11
1.1424862e-10
8.896976e-10
-1.9200708e-13
3.8292939e-11
1.6231757e-10
1.2847155e-09
2.5179401e-11
1.5483487e-10
1.4587472e-09
5.3050654e-13
1.3065869e-10
1.5062155e-09
-2.4180062e-11
1.3066641e-10
1.5064038e-09
-3.753446e-11
1.5479822e-10
1.4594747e-09
-2.7088855e-11
1.623457e-10
1.2857698e-09
1.142272e-10
8.9071414e-10
-1.1283389e-13
3.6516601e-11
1.9686636e-10
1.2224346e-09
-3.8081893e-13
5.0972024e-11
2.6475163e-10
1.6920742e-09
3.3954544e-11
2.5046282e-10
1.8943861e-09
6.5661451e-13
2.1416947e-10
1.9474987e-09
-3.271252e-11
2.1418223e-10
1.9477118e-09
-5.0004496e-11
2.5040191e-10
1.8952107e-09
-3.5978523e-11
2.647894e-10
1.6933083e-09
1.9682479e-10
1.2236829e-09
-2.2792327e-13
4.4579281e-11
2.9419464e-10
1.5288781e-09
-6.0571706e-13
6.1875887e-11
3.7721074e-10
2.0390046e-09
4.1557604e-11
3.5382024e-10
2.2521368e-09
7.4490533e-13
3.0607068e-10
2.3053881e-09
-4.0142301e-11
3.0608765e-10
2.3056077e-09
-6.0747e-11
3.5373395e-10
2.2529874e-09
-4.3907909e-11
3.77254e-10
2.0403186e-09
2.9413121e-10
1.5302658e-09
-3.664141e-13
5.1483883e-11
3.9969661e-10
1.8022261e-09
-8.5242282e-13
7.0754397e-11
4.910495e-10
2.3265226e-09
4.7790433e-11
4.5669832e-10
2.5361916e-09
8.0449877e-13
3.9931784e-10
2.5853758e-09
-4.6255163e-11
3.9933788e-10
2.58559e-09
-6.9502899e-11
4.5658851e-10
2.5370195e-09
-5.0693201e-11
4.9109397e-10
2.3278428e-09
3.9961178e-10
1.8036777e-09
-5.1902677e-13
5.6896671e-11
5.0605539e-10
2.0366121e-09
-1.1097196e-12
7.7457485e-11
5.9768129e-10
2.5565702e-09
5.2542074e-11
5.5146988e-10
2.7510312e-09
8.4320668e-13
4.8720906e-10
2.7932092e-09
-5.0926353e-11
4.8723132e-10
2.7934108e-09
-7.6113626e-11
5.5134091e-10
2.7518051e-09
-5.6000893e-11
5.9772473e-10
2.5578433e-09
5.0594995e-10
2.0380694e-09
-6.781696e-13
6.039326e-11
2.2271792e-09
-1.3570689e-12
6.0579561e-10
8.1907942e-11
2.732307e-09
6.8899814e-10
5.5763339e-11
2.9013574e-09
6.3148653e-10
8.6601734e-13
2.9348651e-09
5.6375793e-10
-5.40947e-11
2.9350501e-09
5.6377891e-10
-8.0495887e-11
2.9020586e-09
6.3134691e-10
-5.9399619e-11
2.7334947e-09
6.8903478e-10
2.2285981e-09
-8.3055793e-13
6.0568059e-10
3.9738122e-12
7.8545732e-12
1.6486118e-10
2.3420433e-14
5.1065906e-12
1.4280446e-11
2.7212287e-10
3.1450458e-12
1.4077036e-11
3.2588131e-10
1.8644638e-13
1.1070173e-11
3.4439118e-10
-2.7916639e-12
1.1074474e-11
3.4446349e-10
-4.8636478e-12
1.4065737e-11
3.2622269e-10
-3.8740172e-12
1.4274666e-11
2.7256674e-10
7.8398896e-12
1.6523219e-10
1.5105343e-14
1.0960987e-11
3.2155055e-11
5.0308318e-10
-5.2589472e-14
1.5022937e-11
5.2051861e-11
7.7469293e-10
9.8202623e-12
5.0830962e-11
9.0968508e-10
4.9572002e-13
4.10439e-11
9.5560454e-10
-8.8826525e-12
4.1061912e-11
9.5578317e-10
-1.4351945e-11
5.0789426e-11
9.1051557e-10
-1.0656063e-11
5.2030563e-11
7.7582223e-10
3.2088669e-11
5.0410287e-10
-3.4163607e-14
1.7228819e-11
7.1782009e-11
8.3305251e-10
-2.1068552e-13
2.4296184e-11
1.0785659e-10
1.2218434e-09
1.6434654e-11
1.0432705e-10
1.4131127e-09
7.3475137e-13
8.5802133e-11
1.4771571e-09
-1.5041466e-11
8.5838193e-11
1.4774038e-09
-2.3266267e-11
1.0424244e-10
1.4142465e-09
-1.672154e-11
1.0781597e-10
1.2234396e-09
7.164308e-11
8.3457431e-10
-1.3612351e-13
2.2996895e-11
1.2450688e-10
1.1471543e-09
-4.4148298e-13
3.2886306e-11
1.7629515e-10
1.6137463e-09
2.2754324e-11
1.6888683e-10
1.8399583e-09
9.0893375e-13
1.4102095e-10
1.9141253e-09
-2.1024368e-11
1.4107466e-10
1.9144086e-09
-3.1571051e-11
1.6875405e-10
1.8412458e-09
-2.2299316e-11
1.7623389e-10
1.6156187e-09
1.2428847e-10
1.1490238e-09
-2.8560097e-13
2.8356771e-11
1.8719558e-10
1.4385572e-09
-7.2460382e-13
4.0754199e-11
2.5196975e-10
1.9509325e-09
2.8631405e-11
2.3909804e-10
2.1940484e-09
1.0302906e-12
2.0236935e-10
2.2716408e-09
-2.6662494e-11
2.0243749e-10
2.2719377e-09
-3.9218833e-11
2.3891849e-10
2.1953793e-09
-2.7485487e-11
2.5188898e-10
1.9529302e-09
1.8690211e-10
1.4406359e-09
-4.6922504e-13
3.3265567e-11
2.560067e-10
1.7011923e-09
-1.0428993e-12
4.7764033e-11
3.2955605e-10
2.2344379e-09
3.3906932e-11
3.0985359e-10
2.4792931e-09
1.1116082e-12
2.6562199e-10
2.5549184e-09
-3.1774228e-11
2.6570028e-10
2.5552131e-09
-4.6061771e-11
3.0963378e-10
2.4805917e-09
-3.2238034e-11
3.2945946e-10
2.2364485e-09
2.5564998e-10
1.7033668e-09
-6.7496448e-13
3.7548644e-11
3.2666453e-10
1.9297879e-09
-1.3822809e-12
5.3788702e-11
4.0386287e-10
2.4660233e-09
3.8443517e-11
3.7650578e-10
2.6997242e-09
1.1638505e-12
3.2682226e-10
2.7692886e-09
-3.620281e-11
3.2690693e-10
2.7695708e-09
-5.1961209e-11
3.7625573e-10
2.7009415e-09
-3.6382592e-11
4.0375769e-10
2.4679664e-09
3.2625863e-10
1.9319707e-09
-8.9256057e-13
4.0869066e-11
2.1198803e-09
-1.7170038e-12
3.9481138e-10
5.866006e-11
2.6484048e-09
4.6997403e-10
4.2105809e-11
2.8594174e-09
4.350001e-10
1.1934858e-12
2.9201699e-09
3.8242986e-10
-3.9794999e-11
2.9204338e-09
3.8251168e-10
-5.6740711e-11
2.8605237e-09
4.3473634e-10
-3.9573334e-11
2.6502223e-09
4.6986271e-10
2.1220052e-09
-1.104226e-12
3.9438245e-10
2.608608e-12
4.9617914e-12
1.572487e-10
4.2077041e-14
3.284927e-12
9.6228857e-12
2.6182367e-10
2.0267777e-12
9.7775648e-12
3.173619e-10
2.5753653e-13
7.6526659e-12
3.3850776e-10
-1.5267285e-12
7.6659302e-12
3.3858183e-10
-2.9528497e-12
9.7425678e-12
3.1790624e-10
-2.477814e-12
9.5773351e-12
2.6251437e-10
4.8989221e-12
1.5783274e-10
2.2707423e-14
7.1596808e-12
2.0533213e-11
4.8037701e-10
-2.492711e-14
9.7311804e-12
3.5202931e-11
7.4654139e-10
6.4675905e-12
3.5364739e-11
8.873615e-10
6.8732088e-13
2.8425375e-11
9.406121e-10
-5.141408e-12
2.8476224e-11
9.408016e-10
-8.8104523e-12
3.5246742e-11
8.8868044e-10
-6.7647452e-12
3.5054604e-11
7.4829926e-10
2.0291648e-11
4.8198117e-10
-3.5769337e-14
1.1233901e-11
4.6208955e-11
7.963247e-10
-1.8183267e-13
1.5840695e-11
7.3215654e-11
1.1792238e-09
1.0990708e-11
7.2718392e-11
1.380609e-09
1.019162e-12
5.953777e-11
1.4560163e-09
-9.0234996e-12
5.9637218e-11
1.4562854e-09
-1.4426984e-11
7.2491987e-11
1.3824048e-09
-1.0582057e-11
7.2942747e-11
1.1817066e-09
4.5730592e-11
7.9871409e-10
-1.60778e-13
1.5012723e-11
8.0756557e-11
1.098028e-09
-4.3403711e-13
2.1633247e-11
1.2016049e-10
1.5601809e-09
1.5453881e-11
1.1800013e-10
1.8008559e-09
1.2594274e-12
9.810394e-11
1.8897536e-09
-1.3017082e-11
9.8250877e-11
1.8900715e-09
-1.9830124e-11
1.1766097e-10
1.8028898e-09
-1.4121759e-11
1.1976452e-10
1.5630885e-09
8.0028049e-11
1.100954e-09
-3.4940282e-13
1.8598494e-11
1.2231227e-10
1.3791634e-09
-7.6041542e-13
2.7131409e-11
1.7252876e-10
1.8900314e-09
1.9776534e-11
1.6758447e-10
2.1518189e-09
1.4251529e-12
1.4127222e-10
2.2468239e-09
-1.7011036e-11
1.4145849e-10
2.2471663e-09
-2.5030508e-11
1.671436e-10
2.1539161e-09
-1.7490318e-11
1.720279e-10
1.8931266e-09
1.2135525e-10
1.3824038e-09
-5.8548075e-13
2.2006496e-11
1.6852498e-10
1.6341162e-09
-1.1431387e-12
3.2281133e-11
2.2687042e-10
2.1698216e-09
2.3859156e-11
2.1808294e-10
2.4372166e-09
1.5345117e-12
1.8629272e-10
2.5322226e-09
-2.0873107e-11
1.865073e-10
2.5325719e-09
-2.9957018e-11
2.1756152e-10
2.4392577e-09
-2.0702762e-11
2.2629383e-10
2.1729284e-09
1.6738351e-10
1.6374899e-09
-8.5415278e-13
2.5152997e-11
2.1674472e-10
1.8579818e-09
-1.5666429e-12
3.7010781e-11
2.7983107e-10
2.4012049e-09
2.75982e-11
2.6643027e-10
2.6607894e-09
1.6031695e-12
2.3060646e-10
2.7509699e-09
-2.4471825e-11
2.3083899e-10
2.7513141e-09
-3.4521543e-11
2.6585477e-10
2.662698e-09
-2.3674836e-11
2.7921563e-10
2.4041979e-09
2.1547185e-10
1.8613498e-09
-1.1423234e-12
2.7800906e-11
2.0465505e-09
-2.0017262e-12
2.6427531e-10
4.1183277e-11
2.5866524e-09
3.2820113e-10
3.0872284e-11
2.8262345e-09
3.0992414e-10
1.6391462e-12
2.9081035e-09
2.7190598e-10
-2.7657611e-11
2.9084359e-09
2.7213366e-10
-3.8575589e-11
2.8279652e-09
3.0933125e-10
-2.6156559e-11
2.5894435e-09
3.2757533e-10
2.0498083e-09
-1.4272351e-12
2.6293946e-10
1.8149995e-12
3.298154e-12
1.5205329e-10
8.2259253e-14
2.2739663e-12
6.6935979e-12
2.546711e-10
1.4486765e-12
7.0600007e-12
3.1112718e-10
3.5715654e-13
5.6359583e-12
3.3396332e-10
-7.2307724e-13
5.6663273e-12
3.3399574e-10
-1.8100017e-12
6.9482134e-12
3.1204495e-10
-1.6419737e-12
6.5267854e-12
2.5581955e-10
3.0929686e-12
1.5306732e-10
3.0487041e-14
4.9367124e-12
1.3728085e-11
4.6490276e-10
1.0760792e-13
6.7007502e-12
2.4539255e-11
7.2693169e-10
4.6025853e-12
2.5543662e-11
8.70976e-10
9.588351e-13
2.0867397e-11
9.2902441e-10
-2.6821445e-12
2.0977378e-11
9.2913153e-10
-5.4118747e-12
2.5183402e-11
8.7317499e-10
-4.4332783e-12
2.4006553e-11
7.2984089e-10
1.3016248e-11
4.6766342e-10
-3.8810732e-14
7.7102475e-12
3.1044235e-11
7.7130477e-10
-6.4584668e-15
1.0882522e-11
5.1166082e-11
1.1494247e-09
7.8122526e-12
5.2580749e-11
1.3566422e-09
1.4226524e-12
4.3657895e-11
1.4396154e-09
-4.97283e-12
4.3870779e-11
1.4397875e-09
-8.9074539e-12
5.1913506e-11
1.3596093e-09
-6.895786e-12
5.021083e-11
1.1534906e-09
2.9650046e-11
7.7537412e-10
-1.8961331e-13
1.0279101e-11
5.4460395e-11
1.0645317e-09
-1.9890108e-13
1.4865659e-11
8.4229034e-11
1.5225314e-09
1.1001812e-11
8.5473396e-11
1.7718271e-09
1.7552579e-12
7.1948712e-11
1.8707093e-09
-7.4990001e-12
7.2265538e-11
1.870931e-09
-1.2356765e-11
8.4510024e-11
1.7751511e-09
-9.1833856e-12
8.2872433e-11
1.5272535e-09
5.2373872e-11
1.0694687e-09
-4.2190991e-13
1.2740181e-11
8.2826568e-11
1.3385646e-09
-5.0749002e-13
1.8703977e-11
1.2137777e-10
1.8469188e-09
1.4141748e-11
1.2168555e-10
2.120169e-09
1.9810198e-12
1.0373151e-10
2.2272018e-09
-1.0184864e-11
1.0413921e-10
2.2274585e-09
-1.5794441e-11
1.2047801e-10
2.1235577e-09
-1.1392139e-11
1.196914e-10
1.8519054e-09
8.0123807e-11
1.3439787e-09
-7.1693733e-13
1.5131322e-11
1.1465929e-10
1.5880649e-09
-9.1272609e-13
2.2394396e-11
1.6029383e-10
2.1236424e-09
1.7184023e-11
1.5884888e-10
2.4052637e-09
2.1261767e-12
1.3708114e-10
2.5139308e-09
-1.2933319e-11
1.3755946e-10
2.5142111e-09
-1.9191387e-11
1.5746874e-10
2.4085251e-09
-1.3555864e-11
1.5837962e-10
2.1286046e-09
1.114737e-10
1.5936413e-09
-1.0570945e-12
1.7417459e-11
1.4826291e-10
1.8083609e-09
-1.4001454e-12
2.5911111e-11
1.9870428e-10
2.3543008e-09
2.0067709e-11
1.9480955e-10
2.6306722e-09
2.2135733e-12
1.7020256e-10
2.7357026e-09
-1.5641854e-11
1.7073069e-10
2.7359983e-09
-2.2497017e-11
1.9333278e-10
2.6336891e-09
-1.5636505e-11
1.9667982e-10
2.3590372e-09
1.4475146e-10
1.813862e-09
-1.4264086e-12
1.9441992e-11
1.9954191e-09
-1.9412049e-12
1.8189349e-10
2.9161841e-11
2.5412327e-09
2.3440418e-10
2.2710878e-11
2.79986e-09
2.2763504e-10
2.252452e-12
2.897294e-09
2.0147048e-10
-1.8181249e-11
2.8976015e-09
2.0199879e-10
-2.5603435e-11
2.8025681e-09
2.2615205e-10
-1.7455926e-11
2.5456068e-09
2.3236904e-10
2.0006714e-09
-1.7967923e-12
1.7822926e-10
1.3357267e-12
2.5053471e-12
1.480397e-10
1.7251331e-13
1.6963804e-12
4.8898807e-12
2.4942057e-10
1.1546265e-12
5.2648026e-12
3.0640414e-10
4.8861943e-13
4.3275866e-12
3.3030174e-10
-8.4568241e-14
4.3687022e-12
3.3020022e-10
-9.8521066e-13
4.8714119e-12
3.0807418e-10
-1.0703422e-12
4.2966542e-12
2.5160803e-10
1.8766826e-12
1.5008512e-10
3.5174141e-14
3.560802e-12
1.0237391e-11
4.5313039e-10
4.7952327e-13
4.9330392e-12
1.7849237e-11
7.126001e-10
3.5744361e-12
1.9047921e-11
8.5855148e-10
1.3270597e-12
1.5941444e-11
9.1965793e-10
-7.1485017e-13
1.6111831e-11
9.1943031e-10
-2.9737317e-12
1.7892718e-11
8.6241256e-10
-2.8383291e-12
1.6193101e-11
7.1780904e-10
8.2046071e-12
4.5853018e-10
-3.3010107e-14
5.5022394e-12
2.2837477e-11
7.5254395e-10
6.5848637e-13
7.9388882e-12
3.7135146e-11
1.1277022e-09
5.9780118e-12
3.9222529e-11
1.3384284e-09
1.9727281e-12
3.326178e-11
1.4263003e-09
-1.763971e-12
3.3628994e-11
1.4260071e-09
-4.9772448e-12
3.7273478e-11
1.3434418e-09
-4.3996558e-12
3.4373833e-11
1.1347323e-09
1.8992274e-11
7.6038881e-10
-2.0201014e-13
7.2821371e-12
3.9649647e-11
1.0397543e-09
6.8300587e-13
1.0766929e-11
6.1071227e-11
1.4951105e-09
8.3337465e-12
6.3799776e-11
1.7496831e-09
2.430221e-12
5.4731555e-11
1.855143e-09
-3.1646529e-12
5.5328025e-11
1.8548268e-09
-7.058458e-12
6.1178434e-11
1.7551399e-09
-5.8705396e-12
5.7309659e-11
1.5031298e-09
3.3983223e-11
1.0490833e-09
-4.7604096e-13
8.9930918e-12
5.9840028e-11
1.3088475e-09
5.3361106e-13
1.3487616e-11
8.8005578e-11
1.81549e-09
1.0645711e-11
9.0920794e-11
2.0958899e-09
2.7343895e-12
7.8850567e-11
2.2109941e-09
-4.8449249e-12
7.9677094e-11
2.2106887e-09
-9.2456802e-12
8.7803473e-11
2.1013334e-09
-7.3239685e-12
8.34582e-11
1.8238351e-09
5.259817e-11
1.318871e-09
-8.3117271e-13
1.0684956e-11
8.2421527e-11
1.5546021e-09
1.9640705e-13
1.6129843e-11
1.1631905e-10
2.0898841e-09
1.2902674e-11
1.1885192e-10
2.3805597e-09
2.9234323e-12
1.0418813e-10
2.4985725e-09
-6.7156921e-12
1.0521866e-10
2.4983087e-09
-1.1520418e-11
1.1543068e-10
2.3857026e-09
-8.7916089e-12
1.11261e-10
2.098073e-09
7.3975616e-11
1.5647179e-09
-1.245731e-12
1.2350642e-11
1.0626228e-10
1.7724552e-09
-2.857067e-13
1.8700976e-11
1.4441783e-10
2.3198517e-09
1.5078299e-11
1.4601053e-10
2.6071362e-09
3.0310586e-12
1.2940823e-10
2.7225298e-09
-8.685732e-12
1.3060329e-10
2.7223304e-09
-1.3847072e-11
1.4246662e-10
2.6118145e-09
-1.0255397e-11
1.3914951e-10
2.327557e-09
9.7048502e-11
1.782234e-09
-1.7003147e-12
1.3902874e-11
1.958477e-09
-8.9680211e-13
1.3019834e-10
2.1142964e-11
2.5076538e-09
1.7075655e-10
1.7132991e-11
2.7789385e-09
1.7094199e-10
3.0663303e-12
2.8874612e-09
1.533077e-10
-1.0632121e-11
2.8873536e-09
1.5454967e-10
-1.614555e-11
2.7830809e-09
1.6746728e-10
-1.1580267e-11
2.5146683e-09
1.6552269e-10
1.9676186e-09
-2.1621139e-12
1.2068307e-10
1.0948164e-12
2.3759872e-12
1.4402162e-10
5.472795e-13
1.3871811e-12
3.9005685e-12
2.4522763e-10
9.9513399e-13
4.0037862e-12
3.027924e-10
7.0434842e-13
3.3039358e-12
3.2728859e-10
9.9567026e-13
2.7681368e-12
3.2714076e-10
-1.0929581e-13
2.1546832e-12
3.0702446e-10
-1.4232669e-12
2.9976669e-12
2.4992433e-10
3.8321077e-13
1.4844714e-10
-1.6850753e-13
2.7538604e-12
9.6824123e-12
4.4153677e-10
1.5333347e-12
3.9365724e-12
1.3824872e-11
7.0149309e-10
2.9591133e-12
1.443783e-11
8.490949e-10
1.9147942e-12
1.2056533e-11
9.1194966e-10
1.9994409e-12
1.0951624e-11
9.1116218e-10
5.8615675e-13
7.7850432e-12
8.5819548e-10
1.9918938e-13
1.032446e-11
7.1086922e-10
5.0597596e-12
4.5359406e-10
4.5875389e-13
4.1164064e-12
2.0488604e-11
7.3542607e-10
2.1952896e-12
6.2089724e-12
2.8281574e-11
1.1111529e-09
4.8338311e-12
2.9679896e-11
1.3245615e-09
2.8106703e-12
2.5098101e-11
1.4152819e-09
2.0150308e-12
2.3916699e-11
1.4138376e-09
-6.4878961e-13
2.0146989e-11
1.3337437e-09
-1.3024514e-12
2.1984695e-11
1.1237257e-09
1.1774346e-11
7.5204756e-10
3.2421138e-13
5.3063797e-12
3.3958524e-11
1.0183214e-09
2.6566036e-12
8.2608351e-12
4.5996683e-11
1.474441e-09