/*--------------------------------*- C++ -*----------------------------------*\
  =========                 |
  \\      /  F ield         | OpenFOAM: The Open Source CFD Toolbox
   \\    /   O peration     | Website:  https://openfoam.org
    \\  /    A nd           | Version:  13
     \\/     M anipulation  |
\*---------------------------------------------------------------------------*/
FoamFile
{
    format      ascii;
    class       volVectorField;
    location    "0.04";
    object      U;
}
// * * * * * * * * * * * * * * * * * * * * * * * * * * * * * * * * * * * * * //

dimensions      [0 1 -1 0 0 0 0];

internalField   nonuniform List<vector> 
51200
(
(0.053519457 0.012978296 0.011906358)
(0.058585601 0.0070056798 0.012113834)
(0.057242064 0.003150184 0.012199586)
(0.056519036 0.00083610315 0.012229165)
(0.056519086 -0.00083377994 0.012229159)
(0.057242215 -0.0031481549 0.012199577)
(0.058585836 -0.0070042276 0.012113823)
(0.053519746 -0.012977973 0.011906346)
(0.12315873 0.032046152 0.034016313)
(0.13010951 0.014358088 0.033271675)
(0.12708691 0.0065205934 0.033257325)
(0.12567562 0.0017618658 0.033284381)
(0.12567573 -0.0017564372 0.033284363)
(0.12708723 -0.0065158413 0.033257283)
(0.13011 -0.014354572 0.033271622)
(0.1231594 -0.032045108 0.034016263)
(0.16715085 0.041808049 0.046661875)
(0.17247742 0.01815489 0.04441968)
(0.16856621 0.0083074884 0.044202068)
(0.16691015 0.0022643731 0.044285577)
(0.16691028 -0.0022568984 0.044285541)
(0.1685666 -0.0083008854 0.04420197)
(0.17247801 -0.018149808 0.044419531)
(0.16715173 -0.04180617 0.046661724)
(0.19431018 0.045611066 0.052623797)
(0.19689924 0.019899316 0.048917082)
(0.19264657 0.0091387042 0.048491425)
(0.19098501 0.002510344 0.048639785)
(0.19098514 -0.002501584 0.048639731)
(0.19264695 -0.0091308843 0.048491266)
(0.19689981 -0.019893073 0.048916835)
(0.19431112 -0.045608306 0.052623498)
(0.2103015 0.046071058 0.054472272)
(0.21017682 0.020452746 0.049601583)
(0.20593772 0.0093915847 0.049025815)
(0.20438816 0.0026005254 0.049222146)
(0.20438828 -0.002590998 0.049222079)
(0.20593807 -0.0093829865 0.049025604)
(0.21017733 -0.020445645 0.049601259)
(0.21030241 -0.046067432 0.054471814)
(0.21888271 0.044631277 0.053662002)
(0.2165481 0.020312476 0.048036749)
(0.21253816 0.0092983741 0.047388308)
(0.21114861 0.0025969912 0.047602172)
(0.21114872 -0.0025870247 0.047602096)
(0.21253846 -0.0092892809 0.047388056)
(0.21654854 -0.020304732 0.048036372)
(0.21888353 -0.044626827 0.0536614)
(0.22261354 0.042101808 0.051099835)
(0.21870017 0.019774157 0.045189015)
(0.21504354 0.0089999698 0.044526615)
(0.21382628 0.0025372978 0.044720649)
(0.21382638 -0.0025270894 0.044720564)
(0.2150438 -0.0089905541 0.044526332)
(0.21870054 -0.019765921 0.045188611)
(0.22261427 -0.042096587 0.051099115)
(0.22319827 0.039073382 0.047589714)
(0.21831002 0.018952865 0.041626406)
(0.2150758 0.0085872489 0.041051414)
(0.21402748 0.0024438893 0.041193489)
(0.21402758 -0.0024335573 0.041193398)
(0.21507603 -0.00857761 0.041051111)
(0.21831033 -0.018944237 0.041626014)
(0.2231989 -0.039067462 0.047588935)
(0.036074584 0.0033556538 0.0012142047)
(0.041671654 0.003739104 0.0013238314)
(0.039926927 0.0021925297 0.0012578539)
(0.038624834 0.00070578539 0.0012384985)
(0.038625126 -0.00070111424 0.0012384954)
(0.039927858 -0.0021884734 0.0012578473)
(0.041673117 -0.0037362648 0.001323827)
(0.036076068 -0.0033551511 0.0012142177)
(0.095957608 0.011248185 0.0074242032)
(0.10664502 0.010518908 0.0077308565)
(0.10214439 0.0059317401 0.0074313752)
(0.099143534 0.0018751584 0.0073536323)
(0.099144218 -0.0018632057 0.007353616)
(0.10214657 -0.005921289 0.0074313112)
(0.10664856 -0.010511315 0.0077308215)
(0.095961525 -0.01124621 0.0074242042)
(0.14525364 0.019378819 0.015135417)
(0.1567002 0.016131434 0.015282301)
(0.15012444 0.0088904282 0.014667429)
(0.14612122 0.0027834396 0.014532462)
(0.14612213 -0.0027661751 0.014532429)
(0.15012729 -0.0088751735 0.014667272)
(0.15670498 -0.016119942 0.015282185)
(0.14525931 -0.019375005 0.01513532)
(0.18441778 0.026420702 0.022701023)
(0.19381227 0.020372908 0.022374049)
(0.1857939 0.011058986 0.021441655)
(0.18130362 0.0034439642 0.021266149)
(0.18130461 -0.0034230469 0.0212661)
(0.185797 -0.011040297 0.021441382)
(0.19381759 -0.020358327 0.022373817)
(0.18442451 -0.026414869 0.022700745)
(0.21406504 0.031783108 0.029126829)
(0.21990961 0.023290953 0.028133037)
(0.21101843 0.012514138 0.026933509)
(0.20640126 0.0038885522 0.026734397)
(0.20640225 -0.003865237 0.026734335)
(0.21102152 -0.012493073 0.026933118)
(0.21991498 -0.023273964 0.028132681)
(0.21407223 -0.031775209 0.029126317)
(0.23515326 0.035412784 0.034023756)
(0.23697341 0.02505034 0.032301746)
(0.22769493 0.013369398 0.030918402)
(0.22318555 0.0041553602 0.030707945)
(0.2231865 -0.0041305257 0.030707876)
(0.22769785 -0.013346717 0.03091791)
(0.23697852 -0.02503148 0.032301276)
(0.23516049 -0.035402853 0.034022995)
(0.24885041 0.037520169 0.037371499)
(0.24688761 0.025832492 0.034950204)
(0.23761058 0.013740935 0.033481601)
(0.23335121 0.0042807181 0.033267828)
(0.2333521 -0.0042549514 0.033267748)
(0.23761326 -0.013717165 0.033481036)
(0.2468923 -0.025812184 0.034949645)
(0.2488574 -0.037508296 0.037370499)
(0.25630806 0.038361461 0.039305257)
(0.25128585 0.025779194 0.036226306)
(0.24229489 0.013731311 0.034804172)
(0.23836739 0.0042948671 0.034593478)
(0.23836821 -0.0042685557 0.034593372)
(0.24229733 -0.013706819 0.034803586)
(0.25129007 -0.025757778 0.036225701)
(0.25631464 -0.038347832 0.039304109)
(0.016256809 0.0015001564 7.3991458e-06)
(0.023358926 0.0028646802 9.4204297e-05)
(0.024072773 0.0019424704 9.5048218e-05)
(0.023424704 0.00065060135 9.025609e-05)
(0.023425395 -0.00064409566 9.0248926e-05)
(0.024075034 -0.0019368284 9.504118e-05)
(0.02336239 -0.0028608702 9.4199777e-05)
(0.016260053 -0.0014995888 7.4097858e-06)
(0.052281448 0.0051324547 0.0019448103)
(0.069038432 0.0081191179 0.0024167812)
(0.069911736 0.0053012834 0.0023130066)
(0.068062759 0.0017667576 0.002225178)
(0.068064425 -0.0017497712 0.0022251451)
(0.06991722 -0.0052864386 0.0023129321)
(0.069047195 -0.0081086642 0.0024167778)
(0.052290413 -0.005129974 0.0019448374)
(0.089692324 0.0096904931 0.005423509)
(0.1117963 0.012902162 0.0062454565)
(0.11190577 0.0081546381 0.0059546313)
(0.10901895 0.0026991532 0.0057413541)
(0.1090212 -0.0026742386 0.0057412916)
(0.11191323 -0.008132632 0.0059544503)
(0.11180865 -0.01288608 0.0062454325)
(0.089705827 -0.00968552 0.0054235069)
(0.12627767 0.014795612 0.010089187)
(0.15001172 0.017069812 0.011088645)
(0.14882364 0.010486302 0.01053919)
(0.14512246 0.00344884 0.010176566)
(0.14512499 -0.0034182605 0.010176474)
(0.14883206 -0.010458988 0.01053887)
(0.1500261 -0.017049136 0.011088571)
(0.12629435 -0.014787844 0.010089093)
(0.16004216 0.019905436 0.015291975)
(0.18254174 0.020478842 0.016215131)
(0.17986587 0.012285299 0.015361306)
(0.17560024 0.0040202208 0.01484886)
(0.17560282 -0.0039857695 0.014848743)
(0.17987448 -0.012254177 0.015360832)
(0.1825569 -0.020454477 0.016214973)
(0.16006074 -0.019894749 0.015291723)
(0.18945587 0.024597357 0.020502864)
(0.20884827 0.023038613 0.021092267)
(0.20474427 0.013560019 0.019911478)
(0.20015429 0.0044228602 0.019263456)
(0.20015679 -0.0043858537 0.019263319)
(0.20475261 -0.013526222 0.019910848)
(0.20886331 -0.023011297 0.021091994)
(0.18947527 -0.024583736 0.020502389)
(0.21353013 0.028606664 0.025359954)
(0.2289499 0.024703741 0.025370551)
(0.22361276 0.014340684 0.02386339)
(0.21890544 0.0046713832 0.023105988)
(0.21890779 -0.0046327469 0.023105838)
(0.22362056 -0.014305036 0.023862616)
(0.22896422 -0.024674076 0.025370146)
(0.21354955 -0.028590173 0.025359209)
(0.23174521 0.031628164 0.029368521)
(0.24329557 0.025480327 0.028695551)
(0.23692445 0.014681654 0.026922145)
(0.23226912 0.0047849694 0.026108712)
(0.23227129 -0.0047453441 0.026108555)
(0.23693157 -0.014644755 0.02692127)
(0.24330879 -0.025448801 0.028695018)
(0.23176409 -0.031609022 0.02936757)
(0.01424517 0.00058587565 7.7365149e-05)
(0.020961682 0.0015832503 0.00010667961)
(0.022477015 0.0012403146 9.9346934e-05)
(0.022260118 0.00044017305 8.8938065e-05)
(0.022261293 -0.00043134336 8.892914e-05)
(0.022480878 -0.0012327337 9.9344772e-05)
(0.02096737 -0.0015783623 0.00010668541)
(0.01425025 -0.00058528717 7.7385419e-05)
(0.04394291 0.0022504207 0.00077310402)
(0.060561387 0.0048502591 0.0010529898)
(0.063978357 0.0036440565 0.0010090652)
(0.063279317 0.0012831683 0.00091905143)
(0.063282181 -0.001259938 0.00091901812)
(0.063987885 -0.0036239317 0.0010090101)
(0.060576018 -0.0048366339 0.0010530722)
(0.043957122 -0.0022475196 0.00077319392)
(0.074190337 0.0045721953 0.0022406637)
(0.097510813 0.0081534646 0.0028855536)
(0.10179988 0.0059050329 0.0027556617)
(0.10056339 0.0020619014 0.0025340907)
(0.10056732 -0.0020276278 0.0025340316)
(0.1018131 -0.0058750094 0.0027555131)
(0.097531851 -0.0081323037 0.0028857265)
(0.074212076 -0.0045661226 0.0022408056)
(0.10437557 0.0074668747 0.0044684306)
(0.13155825 0.011361264 0.0054813566)
(0.13584819 0.0079505016 0.0052068529)
(0.13404596 0.0027532674 0.0048196405)
(0.13405044 -0.0027109857 0.0048195579)
(0.13586344 -0.0079130341 0.0052065718)
(0.13158337 -0.01133387 0.0054816111)
(0.10440299 -0.0074571653 0.0044685855)
(0.13371479 0.010763001 0.0073349105)
(0.16231342 0.014315025 0.0086113625)
(0.16593235 0.0097108126 0.0081304978)
(0.16358098 0.0033380581 0.0075644384)
(0.16358565 -0.0032902198 0.0075643365)
(0.16594835 -0.0096679286 0.0081300567)
(0.16234068 -0.014282573 0.0086116602)
(0.1337461 -0.010749455 0.0073350202)
(0.1612939 0.01424175 0.010651031)
(0.18936505 0.016859388 0.012007559)
(0.19185106 0.011133742 0.011264858)
(0.18901126 0.0038038314 0.010525428)
(0.18901585 -0.0037522719 0.010525312)
(0.19186691 -0.011086997 0.011264243)
(0.18939295 -0.016822853 0.012007849)
(0.16132754 -0.014224326 0.010651021)
(0.18617555 0.017660721 0.014186653)
(0.2124223 0.018861341 0.015389634)
(0.21348616 0.012192703 0.014348002)
(0.21025143 0.0041462446 0.013459015)
(0.21025582 -0.0040922791 0.013458891)
(0.21350128 -0.01214325 0.014347216)
(0.21244968 -0.018821518 0.015389869)
(0.18621019 -0.01763949 0.01418645)
(0.20752237 0.020696949 0.017556137)
(0.2314393 0.020249551 0.018495278)
(0.23086445 0.012890762 0.017141744)
(0.22735184 0.00436934 0.016156964)
(0.22735593 -0.0043138938 0.016156836)
(0.23087847 -0.012839449 0.017140819)
(0.23146529 -0.020207071 0.018495412)
(0.207557 -0.020672187 0.017555796)
(0.011502901 0.00032811833 1.3931311e-05)
(0.018065889 0.00097732735 4.2557168e-05)
(0.020355591 0.00080389711 4.2579058e-05)
(0.020653065 0.00029100948 3.4122992e-05)
(0.020654915 -0.00027882981 3.41132e-05)
(0.02036184 -0.00079354707 4.2580664e-05)
(0.018074762 -0.00097095796 4.2568361e-05)
(0.011510613 -0.00032743614 1.3950902e-05)
(0.036279799 0.0012657026 0.00042373202)
(0.053020589 0.0030326825 0.00064070116)
(0.058613341 0.0024343864 0.00061559334)
(0.059235623 0.0008838654 0.00052877771)
(0.059240193 -0.00085173577 0.00052875355)
(0.058628934 -0.0024067873 0.00061553531)
(0.053043671 -0.0030146993 0.00064082564)
(0.03630158 -0.0012620825 0.00042381223)
(0.062147822 0.0025966274 0.0012772343)
(0.086323835 0.0051832071 0.0017635347)
(0.094047796 0.0040523917 0.0016809089)
(0.094739422 0.0014667769 0.0014677486)
(0.094745768 -0.001419268 0.0014677127)
(0.094069675 -0.0040110932 0.0016807368)
(0.086357354 -0.0051550563 0.0017638032)
(0.062181381 -0.0025888477 0.0012773485)
(0.088534963 0.0043082635 0.0025824326)
(0.11770351 0.0073789873 0.0033612568)
(0.1265281 0.0056107591 0.0031806256)
(0.12707117 0.002019996 0.0028088063)
(0.1270785 -0.001961263 0.0028087629)
(0.12655364 -0.0055590919 0.0031802847)
(0.11774397 -0.0073423314 0.0033616727)
(0.088577609 -0.0042956364 0.0025825395)
(0.11483816 0.0063422966 0.0042945807)
(0.14688735 0.0095361188 0.0053275105)
(0.15593298 0.0070531294 0.0050037929)
(0.15615928 0.0025236777 0.0044596484)
(0.15616699 -0.0024571026 0.0044596009)
(0.15596013 -0.0069938726 0.005003245)
(0.14693182 -0.0094925137 0.0053280413)
(0.11488728 -0.0063245164 0.0042946302)
(0.14042195 0.0086115516 0.0063478175)
(0.17362384 0.01155006 0.0075380608)
(0.18215912 0.0083252438 0.0070253922)
(0.18195482 0.0029605449 0.0063115591)
(0.1819625 -0.0028886866 0.0063115109)
(0.18218638 -0.0082605524 0.0070246169)
(0.17366999 -0.011500828 0.0075386537)
(0.14047525 -0.0085885484 0.0063477453)
(0.16463015 0.010989067 0.0086398139)
(0.19772528 0.013310596 0.0098414914)
(0.20513829 0.0093852308 0.009102774)
(0.20444369 0.0033184184 0.008238722)
(0.20445109 -0.0032431343 0.0082386766)
(0.20516461 -0.0093167178 0.0091017711)
(0.1977713 -0.013256832 0.0098420909)
(0.16468572 -0.010960944 0.008639551)
(0.18682051 0.013261388 0.010944736)
(0.21913597 0.014742193 0.012099848)
(0.2248582 0.010211292 0.011105767)
(0.22366895 0.0035919869 0.010138043)
(0.22367592 -0.0035146013 0.010137996)
(0.22488289 -0.010140159 0.011104572)
(0.2191804 -0.014684764 0.012100385)
(0.18687681 -0.013228536 0.010944385)
(0.010262652 0.00018532012 1.3870885e-05)
(0.016534864 0.00058070568 3.1670036e-05)
(0.019217529 0.00048841948 3.0814199e-05)
(0.019887361 0.00018093878 2.32674e-05)
(0.019890051 -0.00016408308 2.3256968e-05)
(0.0192272 -0.00047420736 3.0814289e-05)
(0.016548094 -0.00057245576 3.1675316e-05)
(0.010273881 -0.00018446495 1.3883322e-05)
(0.03239658 0.00073120572 0.0002530915)
(0.048674196 0.0018472697 0.00040945871)
(0.055495334 0.0015410813 0.00039622565)
(0.057139699 0.00057736003 0.00032377487)
(0.057146435 -0.00053285593 0.00032378805)
(0.055519647 -0.0015030698 0.00039613202)
(0.048708886 -0.0018236686 0.0004095578)
(0.032428488 -0.00072657049 0.00025307271)
(0.05561429 0.0015210137 0.00076311612)
(0.079538743 0.0032194699 0.0011293545)
(0.089343522 0.0026425474 0.0010836232)
(0.091605496 0.00099090842 0.00090555458)
(0.091614965 -0.00092506159 0.00090561131)
(0.089377901 -0.0025855703 0.0010833594)
(0.079589481 -0.0031822173 0.0011295722)
(0.055663709 -0.0015109276 0.00076297059)
(0.079498292 0.0025570188 0.0015550283)
(0.10896765 0.0046747071 0.0021605655)
(0.12070558 0.0037603903 0.0020554749)
(0.1232584 0.001405834 0.0017443798)
(0.12326947 -0.001324385 0.0017444926)
(0.12074606 -0.0036890222 0.002054966)
(0.10902938 -0.0046258865 0.0021609107)
(0.079561441 -0.0025405144 0.0015546842)
(0.10360668 0.0038182251 0.0026112761)
(0.13679394 0.0061686319 0.0034414981)
(0.14952146 0.0048545871 0.0032455607)
(0.15207959 0.0018059088 0.0027893099)
(0.15209141 -0.0017135398 0.0027894796)
(0.14956491 -0.0047726711 0.0032447548)
(0.13686237 -0.0061102635 0.0034419465)
(0.10367987 -0.0037948475 0.0026106822)
(0.12747475 0.0052673858 0.0039016187)
(0.16286619 0.0076406391 0.0049019631)
(0.1757394 0.005883467 0.0045820073)
(0.17806589 0.0021757033 0.0039816454)
(0.17807784 -0.0020759697 0.0039818672)
(0.17578348 -0.0057940027 0.0045808781)
(0.16293789 -0.0075744896 0.0049024735)
(0.1275547 -0.0052370058 0.0039007267)
(0.15062105 0.0068422333 0.0053754138)
(0.18707885 0.0090205684 0.0064579615)
(0.19932559 0.0068097891 0.005984556)
(0.20123762 0.0025023134 0.0052544041)
(0.20124929 -0.0023978093 0.0052546708)
(0.1993686 -0.0067150372 0.0059831056)
(0.1871511 -0.0089481343 0.0064584933)
(0.15070504 -0.0068049714 0.0053741839)
(0.17255998 0.008422673 0.0069114745)
(0.20941513 0.010253913 0.0080431463)
(0.22026884 0.0076061572 0.0073843001)
(0.22164654 0.0027769913 0.0065596326)
(0.22165767 -0.0026695763 0.0065599133)
(0.22030963 -0.0075078159 0.0073825803)
(0.2094857 -0.010176397 0.0080436324)
(0.17264578 -0.0083790517 0.0069101202)
(0.0094332798 0.00011693365 6.8433658e-06)
(0.015488415 0.00036261448 2.0154361e-05)
(0.018414638 0.00030126719 2.0436196e-05)
(0.019354758 0.00011455234 1.4835683e-05)
(0.019358372 -9.109685e-05 1.4827666e-05)
(0.018429544 -0.0002814771 2.04285e-05)
(0.015508145 -0.00035195472 2.0136069e-05)
(0.0094498301 -0.00011570729 6.8310379e-06)
(0.029875169 0.00045737679 0.00015591508)
(0.045752154 0.001162859 0.00027126096)
(0.053338173 0.00097890805 0.00026730722)
(0.055735952 0.00037957525 0.00021214401)
(0.055745152 -0.00031769339 0.00021225035)
(0.053375747 -0.00092592628 0.00026706653)
(0.045804111 -0.001131948 0.00027114313)
(0.029922283 -0.00045116623 0.00015556785)
(0.051426226 0.00095002896 0.00047694399)
(0.074996645 0.0020452807 0.00074945821)
(0.08611214 0.0017160844 0.00073007351)
(0.089553333 0.00066819906 0.00059391698)
(0.089566443 -0.0005767262 0.00059419565)
(0.086165444 -0.0016366702 0.00072944539)
(0.075072908 -0.0019960781 0.0007491535)
(0.051499304 -0.00093665122 0.00047593482)
(0.073730275 0.0016013844 0.0009794974)
(0.10310158 0.0030034088 0.0014363182)
(0.11670738 0.0024940964 0.0013848012)
(0.12080524 0.00096975932 0.0011462946)
(0.1208208 -0.00085673169 0.0011467772)
(0.11677041 -0.0023946795 0.001383661)
(0.10319471 -0.0029385107 0.0014357862)
(0.073823805 -0.0015795592 0.00097762406)
(0.096418795 0.0024042057 0.0016551144)
(0.12994821 0.0040164211 0.0022935114)
(0.14509187 0.0032882892 0.002189353)
(0.14949477 0.0012730446 0.0018388758)
(0.14951161 -0.0011450098 0.0018395585)
(0.14515986 -0.0031742938 0.0021876361)
(0.13005186 -0.0039384355 0.0022927349)
(0.096527378 -0.002373315 0.0016522928)
(0.11911029 0.0033424266 0.0024885131)
(0.15543397 0.0050519671 0.0032789946)
(0.17123706 0.0040711081 0.0030999156)
(0.17563496 0.0015666981 0.0026378909)
(0.17565226 -0.0014286232 0.0026387523)
(0.1713064 -0.0039467845 0.0030976115)
(0.15554305 -0.0049632352 0.0032779813)
(0.11922916 -0.00330227 0.0024847313)
(0.14141118 0.004385656 0.0034534045)
(0.17949407 0.0060693962 0.0043445823)
(0.19512216 0.0048154038 0.004069462)
(0.19925365 0.0018402108 0.0035061879)
(0.19927082 -0.0016957155 0.0035071976)
(0.19519024 -0.004683967 0.004066612)
(0.17960453 -0.0059719486 0.004343374)
(0.14153634 -0.0043363641 0.0034487132)
(0.16291846 0.0054665991 0.0044828704)
(0.20213284 0.0070349709 0.0054578594)
(0.21673294 0.0054976901 0.0050591147)
(0.22039712 0.0020850981 0.0044199106)
(0.22041377 -0.001936769 0.0044209794)
(0.21679793 -0.0053615679 0.0050558497)
(0.20224137 -0.0069304709 0.0054564828)
(0.16304667 -0.005408852 0.0044777392)
(0.0089225719 7.6840438e-05 4.2326584e-06)
(0.014805091 0.00023586584 1.3543742e-05)
(0.017860919 0.00019307853 1.4177873e-05)
(0.01897953 7.7513824e-05 1.0226034e-05)
(0.018983847 -4.470114e-05 1.0214605e-05)
(0.017884315 -0.00016484176 1.4129951e-05)
(0.014835012 -0.00022200978 1.3445931e-05)
(0.0089475709 -7.4875022e-05 4.1520333e-06)
(0.02829555 0.0002982613 9.8755599e-05)
(0.043818022 0.00075887479 0.00018284401)
(0.051836303 0.00063997403 0.00018572217)
(0.054745222 0.00026180985 0.00014676057)
(0.0547565 -0.00017535443 0.00014706686)
(0.051895195 -0.00056447815 0.000185023)
(0.043897015 -0.00071811923 0.000181988)
(0.028366721 -0.0002896156 9.7451735e-05)
(0.048771678 0.00061809591 0.00030537336)
(0.071958589 0.0013411033 0.00050740207)
(0.083844317 0.0011388884 0.00050820773)
(0.088103632 0.00046689576 0.00041159436)
(0.088120013 -0.00033931293 0.00041236589)
(0.083927821 -0.0010259432 0.00050649104)
(0.072074702 -0.0012756695 0.00050533603)
(0.048882053 -0.00060001789 0.00030187187)
(0.070036102 0.0010430575 0.00063232487)
(0.099134936 0.0019825806 0.0009763494)
(0.11387501 0.0016796348 0.00096595362)
(0.11906965 0.00068602108 0.00079604238)
(0.11908943 -0.00052868939 0.00079736204)
(0.11397373 -0.0015385864 0.00096298146)
(0.09927685 -0.0018957289 0.00097286174)
(0.070177295 -0.0010139221 0.00062604814)
(0.091766384 0.0015718914 0.0010765601)
(0.12525858 0.002674213 0.0015657385)
(0.14191435 0.0022479691 0.0015312527)
(0.14765946 0.00091216254 0.0012806757)
(0.14768129 -0.00073434071 0.0012825369)
(0.14202084 -0.0020867203 0.0015269574)
(0.12541662 -0.0025693515 0.0015608265)
(0.091930152 -0.0015309126 0.0010673253)
(0.11363066 0.0021983154 0.0016308335)
(0.15025586 0.0033991321 0.0022496493)
(0.16794788 0.0028269704 0.0021760515)
(0.17389422 0.0011378737 0.0018446358)
(0.17391706 -0.00094657073 0.0018469858)
(0.16805654 -0.0026517289 0.0021704969)
(0.15042222 -0.0032794064 0.0022434714)
(0.11380971 -0.0021452231 0.0016187365)
(0.13528629 0.0029074599 0.002281316)
(0.17408549 0.0041341504 0.0029989904)
(0.1919625 0.0033986347 0.0028708711)
(0.19780338 0.0013557197 0.0024655351)
(0.19782652 -0.0011560231 0.0024682953)
(0.19206926 -0.0032141054 0.0028642294)
(0.17425397 -0.004002352 0.0029918406)
(0.13547451 -0.0028424121 0.0022666786)
(0.1563787 0.0036597688 0.0029890254)
(0.19676516 0.0048591249 0.0037963543)
(0.21394345 0.0039456592 0.0035908098)
(0.21942741 0.0015590171 0.0031288719)
(0.21945032 -0.0013545299 0.0031318217)
(0.21404545 -0.0037554083 0.0035834415)
(0.19693078 -0.0047175737 0.0037885658)
(0.15657111 -0.0035836902 0.0029729586)
(0.0085830671 5.3154666e-05 2.7396918e-06)
(0.0143388 0.00016335547 9.3833088e-06)
(0.017463035 0.00013415713 1.0253317e-05)
(0.018697051 5.9271821e-05 7.6611508e-06)
(0.018700463 -1.2848391e-05 7.6614684e-06)
(0.017500643 -9.2339524e-05 1.0089174e-05)
(0.014386313 -0.00014522202 9.0857176e-06)
(0.0086240837 -4.9886281e-05 2.4071445e-06)
(0.027245426 0.0002035584 6.5828225e-05)
(0.042492339 0.00052292195 0.00012721359)
(0.050752057 0.00044496793 0.00013409431)
(0.05399808 0.00019785709 0.00010793553)
(0.054007968 -7.5787902e-05 0.0001086149)
(0.050846265 -0.00033355818 0.00013192559)
(0.042617326 -0.00046850675 0.00012407864)
(0.027361232 -0.00019164073 6.1848894e-05)
(0.047004123 0.00042010665 0.00020461385)
(0.069865387 0.00092269466 0.0003539349)
(0.082197448 0.00079410294 0.00036716674)
(0.087005857 0.00035075964 0.00030193869)
(0.08702112 -0.00017106694 0.00030360247)
(0.082330486 -0.0006280712 0.00036203308)
(0.07004854 -0.00083438413 0.00034661868)
(0.047182628 -0.00039616021 0.00019437945)
(0.067568562 0.00070855332 0.00042539891)
(0.096383065 0.0013651629 0.00068296739)
(0.11180136 0.0011766882 0.00069881451)
(0.11774585 0.00051401479 0.00058358035)
(0.1177652 -0.00029308448 0.00058642093)
(0.11195803 -0.00097025572 0.00069023075)
(0.096606137 -0.0012471557 0.00067090467)
(0.067795539 -0.00067042371 0.00040733231)
(0.088643681 0.0010697447 0.00072708319)
(0.12197554 0.0018471119 0.0010988805)
(0.13956184 0.0015852004 0.0011100373)
(0.14624309 0.00068371549 0.00093940793)
(0.14626536 -0.00043486542 0.00094345631)
(0.13973012 -0.0013504015 0.0010980689)
(0.12222294 -0.0017039834 0.0010822082)
(0.088905222 -0.0010164321 0.00070087812)
(0.10992759 0.0015018244 0.0011063244)
(0.14658763 0.0023600362 0.0015851523)
(0.16547467 0.0020099527 0.0015819377)
(0.1725246 0.00085553197 0.0013554318)
(0.17254888 -0.00058882037 0.0013606282)
(0.16564563 -0.0017562603 0.0015669975)
(0.14684679 -0.0021961319 0.0015645012)
(0.11021142 -0.0014329489 0.0010724735)
(0.13110913 0.0019976427 0.0015558305)
(0.17019403 0.0028907413 0.0021234427)
(0.18953382 0.0024397687 0.0020948263)
(0.19662187 0.0010247813 0.001816856)
(0.19664746 -0.00074747072 0.0018230746)
(0.18970105 -0.0021743715 0.0020775486)
(0.17045511 -0.0027100143 0.0020998186)
(0.13140504 -0.0019133679 0.0015154319)
(0.15186497 0.0025329535 0.0020521885)
(0.19282348 0.0034274175 0.0027041658)
(0.21172754 0.0028628944 0.0026314727)
(0.21857309 0.0011868575 0.002313461)
(0.21859948 -0.00090402078 0.0023202448)
(0.2118866 -0.0025912627 0.0026128887)
(0.19307876 -0.0032331751 0.002678753)
(0.15216473 -0.0024345824 0.0020079302)
(0.0083410025 3.7525351e-05 2.2709487e-06)
(0.014006942 0.00012107299 6.9566385e-06)
(0.017165765 0.00010181627 7.6205268e-06)
(0.018473233 4.9989185e-05 6.0040099e-06)
(0.018472981 1.564135e-05 5.9556643e-06)
(0.017232094 -3.4946884e-05 6.8469775e-06)
(0.014092161 -9.3118715e-05 5.7042511e-06)
(0.0084158769 -3.2214514e-05 1.1240536e-06)
(0.026501514 0.00014128621 4.9906644e-05)
(0.041548032 0.00038292319 9.2788298e-05)
(0.04994016 0.00033193647 0.00010003961)
(0.053404762 0.00016254776 8.268884e-05)
(0.053406584 9.7634797e-06 8.3721463e-05)
(0.050103921 -0.00015576645 9.2704442e-05)
(0.041761145 -0.00029829696 8.2304411e-05)
(0.026707369 -0.00012319754 3.8143897e-05)
(0.04575767 0.00029206967 0.00015193517)
(0.068371931 0.00067041699 0.00025716176)
(0.080960061 0.00058705611 0.00027386192)
(0.086130249 0.0002833649 0.00023033109)
(0.086134922 -3.0443005e-05 0.00023310585)
(0.081186847 -0.00032745569 0.0002581945)
(0.068679029 -0.00053518526 0.00023526255)
(0.046071267 -0.00025737968 0.00012324123)
(0.065833821 0.00049410444 0.00031164668)
(0.094414125 0.00098656574 0.00049534078)
(0.11023536 0.00086542526 0.00052139583)
(0.1166821 0.00041002111 0.00044419615)
(0.11668961 -0.00010019447 0.00044936314)
(0.11049738 -0.00054611415 0.00049723657)
(0.094784057 -0.00080846632 0.00046123631)
(0.066228217 -0.00044012908 0.00026221763)
(0.086451389 0.00074846016 0.00052751994)
(0.11961645 0.001331045 0.00079650496)
(0.13777237 0.0011636708 0.00082883211)
(0.14509161 0.00054057424 0.00071419592)
(0.14510183 -0.00019305958 0.00072215266)
(0.13804887 -0.00080433813 0.0007971587)
(0.1200225 -0.0011177494 0.00075097104)
(0.086900558 -0.00067417942 0.00045687452)
(0.10732664 0.0010549883 0.00079733541)
(0.14393575 0.001699952 0.0011493834)
(0.16357463 0.0014767564 0.0011826268)
(0.17139057 0.0006728319 0.0010300993)
(0.17140347 -0.00030207932 0.0010410148)
(0.16385087 -0.0010926952 0.0011448996)
(0.1443565 -0.0014584566 0.0010943053)
(0.10780791 -0.00096023119 0.00070718052)
(0.12816803 0.0014101945 0.0011167346)
(0.16735796 0.0020859127 0.001541708)
(0.18764239 0.0017981617 0.001568757)
(0.19561302 0.00080416371 0.0013812066)
(0.19562862 -0.00042050904 0.0013949973)
(0.18790841 -0.0014008505 0.0015266994)
(0.16777688 -0.001822452 0.0014797971)
(0.12866287 -0.0012955675 0.0010103434)
(0.14867257 0.0017980169 0.0014702516)
(0.18992071 0.0024824196 0.0019681871)
(0.2099682 0.0021202911 0.001974658)
(0.21779718 0.00093172955 0.0017597637)
(0.21781545 -0.00054221937 0.0017754603)
(0.21021764 -0.0017184139 0.0019307212)
(0.19032531 -0.0022019597 0.0019026055)
(0.14916648 -0.0016662426 0.0013545698)
(0.0081280079 2.4225212e-05 1.9593564e-06)
(0.013751928 0.00010217929 6.079393e-06)
(0.01693593 8.3244008e-05 5.8181934e-06)
(0.01828764 4.2460504e-05 4.9015532e-06)
(0.018273575 5.5464816e-05 3.3123711e-06)
(0.017061274 4.5600101e-05 7.7504623e-06)
(0.013931825 -7.3816666e-05 3.5695002e-06)
(0.0082887909 -5.1721611e-05 -4.135866e-06)
(0.025868878 9.3512264e-05 4.8580713e-05)
(0.040832336 0.00031179797 7.3159265e-05)
(0.049313556 0.00026239617 7.6063075e-05)
(0.052912379 0.00013602004 6.267434e-05)
(0.052879908 0.0001189516 5.4221592e-05)
(0.049592754 9.0835882e-05 3.3681672e-05)
(0.041219835 -5.2533456e-05 5.512008e-05)
(0.026307328 9.5578054e-06 1.5422625e-05)
(0.044736486 0.0002039894 0.00014110082)
(0.067250425 0.00053024156 0.00019766844)
(0.080004825 0.00045483315 0.00020750475)
(0.085401601 0.00023405523 0.00017374456)
(0.085356512 0.00013313854 0.00016169456)
(0.080375371 1.8222417e-05 0.00012397644)
(0.067788514 -0.00022645082 0.00015000572)
(0.045381205 -9.4346547e-05 7.602388e-05)
(0.064454094 0.00035173055 0.00027455129)
(0.092944583 0.0007618147 0.00037523821)
(0.10902419 0.00066109551 0.00039440772)
(0.11579225 0.00033469852 0.0003349691)
(0.11573921 0.00010784231 0.00032456798)
(0.10944175 -0.00010629283 0.00028557398)
(0.093579124 -0.00041612727 0.00029567513)
(0.06524053 -0.00022565399 0.00016282212)
(0.084748297 0.00053503658 0.00044438402)
(0.11786224 0.0010092683 0.00059753929)
(0.13638368 0.00088074957 0.00062640485)
(0.14412011 0.00043716733 0.00053914899)
(0.14406378 5.2139286e-05 0.00053515143)
(0.13681585 -0.00027605825 0.00050489753)
(0.11854718 -0.00062736465 0.00048884739)
(0.085619954 -0.00038818289 0.00028358741)
(0.10534276 0.00075380732 0.00064755759)
(0.14196715 0.0012728091 0.00085623404)
(0.16209274 0.0011119792 0.00089339919)
(0.17042067 0.00054066071 0.00077869122)
(0.17036547 -2.5237234e-05 0.00078397324)
(0.16251729 -0.00048188068 0.0007672968)
(0.14266604 -0.00086209001 0.00072418142)
(0.10625326 -0.0005857751 0.00044228084)
(0.12595511 0.0010065785 0.00088076809)
(0.16525254 0.0015497609 0.0011424987)
(0.18615694 0.0013514727 0.0011849336)
(0.19473041 0.00064385582 0.0010454186)
(0.19468017 -0.00011639458 0.0010606631)
(0.18655942 -0.00071404247 0.001059654)
(0.16593781 -0.0011179513 0.00099470611)
(0.12686871 -0.00081914564 0.00063960505)
(0.14629328 0.0012827662 0.0011326983)
(0.18776274 0.0018379197 0.0014533076)
(0.20857308 0.0015945262 0.0014914927)
(0.21708837 0.00074511327 0.0013335384)
(0.21704606 -0.0002145844 0.0013569117)
(0.20894488 -0.00096309164 0.0013718469)
(0.18841399 -0.0013914219 0.0012980624)
(0.14718396 -0.0010811513 0.00087095841)
(0.0078176083 -1.3355672e-05 -1.1722612e-05)
(0.013538599 0.00014447216 3.7111085e-06)
(0.016764935 7.5139491e-05 3.954518e-06)
(0.018141634 1.955661e-05 2.8905816e-06)
(0.018159016 0.00012752358 -2.1302962e-06)
(0.017539441 0.00018158465 -6.7547037e-05)
(0.013827028 -7.642561e-05 1.369698e-05)
(0.0082417716 -6.0333768e-05 -5.6815005e-06)
(0.025137488 0.00012247817 -5.118779e-05)
(0.040262703 0.00039241249 4.3486301e-05)
(0.048849264 0.00021840483 5.3406409e-05)
(0.05251973 7.1957729e-05 4.1107347e-05)
(0.052476089 0.00028254624 -3.6980704e-05)
(0.049661383 0.00041360995 -0.00014944272)
(0.040961496 -2.593472e-05 5.5790051e-05)
(0.026136822 -8.8324068e-06 -7.4331246e-06)
(0.043677994 0.00030909422 6.8994109e-05)
(0.066380393 0.00058814016 0.00012963853)
(0.079294668 0.00036061945 0.00014762993)
(0.084810183 0.00013165083 0.0001164156)
(0.084680887 0.00035709018 2.3495041e-06)
(0.079999041 0.00048074657 -8.2756827e-05)
(0.067374917 -4.7788558e-05 0.00010260951)
(0.045067822 -3.1340408e-05 1.5350475e-05)
(0.06313256 0.00047884055 0.0001970811)
(0.091822815 0.00076362485 0.00025224606)
(0.10811797 0.00050738485 0.00028310198)
(0.11505639 0.00019769154 0.0002296108)
(0.11485476 0.00037196739 0.00011839778)
(0.10873233 0.00047247279 4.8473854e-05)
(0.092975783 -8.5171109e-05 0.00017475968)
(0.064767623 -8.2998748e-05 5.402124e-05)