/*--------------------------------*- C++ -*----------------------------------*\
  =========                 |
  \\      /  F ield         | OpenFOAM: The Open Source CFD Toolbox
   \\    /   O peration     | Website:  https://openfoam.org
    \\  /    A nd           | Version:  13
     \\/     M anipulation  |
\*---------------------------------------------------------------------------*/
FoamFile
{
    format      ascii;
    class       surfaceScalarField;
    location    "0.08";
    object      alphaPhi.water;
}
// * * * * * * * * * * * * * * * * * * * * * * * * * * * * * * * * * * * * * //

dimensions      [0 3 -1 0 0 0 0];

internalField   nonuniform List<scalar> 
150720
(
0
0
0
0
0
0
0
0
0
0
0
0
0
0
0
0
0
0
0
0
0
0
0
0
0
0
0
0
0
0
0
0
0
0
0
0
0
0
0
0
0
0
0
0
0
0
0
0
0
0
0
0
0
0
0
0
0
0
0
0
0
0
0
0
0
0
0
0
0
0
0
0
0
0
0
0
0
0
0
0
0
0
0
0
0
0
0
0
0
0
0
0
0
0
0
0
0
0
0
0
0
0
0
0
0
0
0
0
0
0
0
0
0
0
0
0
0
0
0
0
0
0
0
0
0
0
0
0
0
0
0
0
0
0
0
0
0
0
0
0
0
0
0
0
0
0
0
0
0
0
0
0
0
0
0
0
0
0
0
0
0
0
0
0
0
0
0
0
0
0
0
0
0
0
0
0
0
0
0
0
0
0
0
0
0
0
0
0
0
0
0
0
0
0
0
0
0
0
0
0
0
0
0
0
0
0
0
0
0
0
0
0
0
0
0
0
0
0
0
0
0
0
0
0
0
0
0
0
0
0
0
0
0
0
0
0
0
0
0
0
0
0
0
0
0
0
0
0
0
0
0
0
0
0
0
0
0
0
0
0
0
0
0
0
0
0
0
0
0
0
0
0
0
0
0
0
0
0
0
0
0
0
0
0
0
0
0
0
0
0
0
0
0
0
0
0
0
0
0
0
0
0
0
0
0
0
0
0
0
0
0
0
0
0
0
0
0
0
0
0
0
0
0
0
0
0
0
0
0
0
0
0
0
0
0
0
0
0
0
0
0
0
0
0
0
0
0
0
0
0
0
0
0
0
0
0
0
0
0
0
0
0
0
0
0
0
0
0
0
0
0
0
0
0
0
0
0
0
0
0
0
0
0
0
0
0
0
0
0
0
0
0
0
0
0
0
0
0
0
0
0
0
0
0
0
0
0
0
0
0
0
0
0
0
0
0
0
0
0
0
0
0
0
0
0
0
0
0
0
0
0
0
0
0
0
0
0
0
0
0
0
0
0
0
0
0
0
0
0
0
0
0
0
0
0
0
0
0
0
0
0
0
0
0
0
0
0
0
0
0
0
0
0
0
0
0
0
0
0
0
0
0
0
0
0
0
0
0
0
0
0
0
0
0
0
0
0
0
0
0
0
0
0
0
0
0
0
0
0
0
0
0
0
0
0
0
0
0
0
0
0
0
0
0
0
0
0
0
0
0
0
0
0
0
0
0
0
0
0
0
0
0
0
0
0
0
0
0
0
0
0
0
0
0
0
0
0
0
0
0
0
0
0
0
0
0
0
0
0
0
0
0
0
0
0
0
0
0
0
0
0
0
0
0
0
0
0
0
0
0
0
0
0
0
0
0
0
0
0
0
0
0
0
0
0
0
0
0
0
0
0
0
0
0
0
0
0
0
0
0
0
0
0
0
0
0
0
0
0
0
0
0
0
0
0
0
0
0
0
0
0
0
0
0
0
0
0
0
0
0
0
0
0
0
0
0
0
0
0
0
0
0
0
0
0
0
0
0
0
0
0
0
0
0
0
0
0
0
0
0
0
0
0
0
0
0
0
0
0
0
0
0
0
0
0
0
0
0
0
0
0
0
0
0
0
0
0
0
0
0
0
0
0
0
0
0
0
0
0
0
0
0
0
0
0
0
0
0
0
0
0
0
0
0
0
0
0
0
0
0
0
0
0
0
0
0
0
0
0
0
0
0
0
0
0
0
0
0
0
0
0
0
0
0
0
0
0
0
0
0
0
0
0
0
0
0
0
0
0
0
0
0
0
0
0
0
0
0
0
0
0
0
0
0
0
0
0
0
0
0
0
0
0
0
0
0
0
0
0
0
0
0
0
0
0
0
0
0
0
0
0
0
0
0
0
0
0
0
0
0
0
0
0
0
0
0
0
0
0
0
0
0
0
0
0
0
0
0
0
0
0
0
0
0
0
0
0
0
0
0
0
0
0
0
0
0
0
0
0
0
0
0
0
0
0
0
0
0
0
0
0
0
0
0
0
0
0
0
0
0
0
0
0
0
0
0
0
0
0
0
0
0
0
0
0
0
0
0
0
0
0
0
0
0
0
0
0
0
0
0
0
0
0
0
0
0
0
0
0
0
0
0
0
0
0
0
0
0
0
0
0
0
0
0
0
0
0
0
0
0
0
0
0
0
0
0
0
0
0
0
0
0
0
0
0
0
0
0
0
0
0
0
0
0
0
0
0
0
0
0
0
0
0
0
0
0
0
0
0
0
0
0
0
0
0
0
0
0
0
0
0
0
0
0
0
0
0
0
0
0
0
0
0
0
0
0
0
0
0
0
0
0
0
0
0
0
0
0
0
0
0
0
0
0
0
0
0
0
0
0
0
0
0
0
0
0
0
0
0
0
0
0
0
0
0
0
0
0
0
0
0
0
0
0
0
0
0
0
0
0
0
0
0
0
0
0
0
0
0
0
0
0
0
0
0
0
0
0
0
0
0
0
0
0
0
0
0
0
0
0
0
0
0
0
0
0
0
0
0
0
0
0
0
0
0
0
0
0
0
0
0
0
0
0
0
0
0
0
0
0
0
0
0
0
0
0
0
0
0
0
0
0
0
0
0
0
0
0
0
0
0
0
0
0
0
0
0
0
0
0
0
0
0
0
0
0
0
0
0
0
0
0
0
0
0
0
0
0
0
0
0
0
0
0
0
0
0
0
0
0
0
0
0
0
0
0
0
0
0
0
0
0
0
0
0
0
0
0
0
0
0
0
0
0
0
0
0
0
0
0
0
0
0
0
0
0
0
0
0
0
0
0
0
0
0
0
0
0
0
0
0
0
0
0
0
0
0
0
0
0
0
0
0
0
0
0
0
0
0
0
0
0
0
0
0
0
0
0
0
0
0
0
0
0
0
0
0
0
0
0
0
0
0
0
0
0
0
0
0
0
0
0
0
0
0
0
0
0
0
0
0
0
0
0
0
0
0
0
0
0
0
0
0
0
0
0
0
0
0
0
0
0
0
0
0
0
0
0
0
0
0
0
0
0
0
0
0
0
0
0
0
0
0
0
0
0
0
0
0
0
0
0
0
0
0
0
0
0
0
0
0
0
0
0
0
0
0
0
0
0
0
0
0
0
0
0
0
0
0
0
0
0
0
0
0
0
0
0
0
0
0
0
0
0
0
0
0
0
0
0
0
0
0
0
0
0
0
0
0
0
0
0
0
0
0
0
0
0
0
0
0
0
0
0
0
0
0
0
0
0
0
0
0
0
0
0
0
0
0
0
0
0
0
0
0
0
0
0
0
0
0
0
0
0
0
0
0
0
0
0
0
0
0
0
0
0
0
0
0
0
0
0
0
0
0
0
0
0
0
0
0
0
0
0
0
0
0
0
0
0
0
0
0
0
0
0
0
0
0
0
0
0
0
0
0
0
0
0
0
0
0
0
0
0
0
0
0
0
0
0
0
0
0
0
0
0
0
0
0
0
0
0
0
0
0
0
0
0
0
0
0
0
0
0
0
0
0
0
0
0
0
0
0
0
0
0
0
0
0
0
0
0
0
0
0
0
0
0
0
0
0
0
0
0
0
0
0
0
0
0
0
0
0
0
0
0
0
0
0
0
0
0
0
0
0
0
0
0
0
0
2.3826018e-39
4.4696515e-39
4.7223187e-37
9.958249e-42
1.2757272e-44
3.7730607e-44
2.3825513e-39
4.3690253e-50
2.1466032e-49
1.2757014e-44
2.9857135e-56
5.990815e-55
4.3689624e-50
-4.1842309e-51
5.738501e-56
4.1842034e-51
-1.6299602e-48
3.1208512e-49
1.3136908e-48
-2.8944313e-43
2.0722573e-44
2.6871893e-43
9.9540757e-40
3.6625014e-38
-4.7391982e-39
1.67914e-41
4.9445409e-41
3.4638389e-39
1.772314e-46
2.7135426e-46
1.0162352e-45
1.6827843e-41
3.0179055e-51
1.6889175e-50
2.7154902e-46
5.6635969e-57
1.5707283e-55
3.0183419e-51
-1.3835898e-49
7.1901604e-54
1.3835185e-49
-3.6973615e-47
1.1016306e-48
3.6045732e-47
-2.1981476e-42
4.0254172e-44
2.1785791e-42
4.1098737e-39
1.3010524e-37
1.0650619e-41
9.2516221e-46
3.9733011e-45
4.9440503e-41
7.7985882e-48
5.1491716e-50
2.5433936e-49
1.9410916e-45
1.3747049e-54
4.8364629e-54
6.8384468e-50
4.4952713e-60
8.922516e-59
1.5316688e-54
-3.6562223e-50
8.0898124e-54
3.6554497e-50
-7.6688568e-48
1.7656204e-49
8.557363e-48
-3.5637008e-43
1.0099838e-44
2.987396e-43
1.2008478e-41
7.8178498e-39
1.2912119e-42
1.0192418e-49
5.8199395e-49
3.9726163e-45
8.6340338e-52
2.4932135e-45
1.4767855e-44
5.2463128e-43
3.7907135e-46
6.7884058e-45
1.9809257e-43
4.1975293e-51
1.8849603e-47
9.1330798e-46
-3.9400243e-53
3.9943726e-53
4.2104749e-51
-6.2634264e-49
3.829333e-50
7.645946e-49
-2.8421787e-44
6.3738312e-46
3.9626163e-44
1.3601146e-45
1.3394038e-41
8.4848472e-46
9.5215815e-54
1.3062942e-52
5.8185362e-49
1.4706877e-55
4.4024909e-46
4.6605573e-46
8.6031282e-44
1.2539817e-47
3.2950797e-47
1.8966001e-44
2.1734642e-52
5.8326872e-49
1.0481061e-46
-1.2112419e-53
5.1309017e-53
6.1202356e-52
-1.7239438e-48
5.333036e-50
1.7454922e-48
-1.1765039e-48
1.4742553e-49
6.6143371e-46
3.9356993e-49
1.3583393e-45
2.052059e-49
7.0555836e-53
4.5253491e-56
6.0028251e-53
3.4263609e-59
1.5078946e-47
2.499402e-48
2.1967701e-45
4.5962295e-50
1.0675782e-50
9.886728e-47
4.2903943e-52
2.9520054e-50
8.147264e-48
-9.38091e-53
6.741997e-53
2.27068e-51
-2.6283018e-52
3.8901246e-53
5.4661443e-50
-4.6652336e-52
7.4328497e-53
1.4195141e-49
2.0124067e-52
3.9283211e-49
6.9996359e-53
1.8826588e-56
2.9954776e-59
2.5308377e-56
1.4453301e-62
1.6830674e-50
1.3697682e-51
2.7392357e-48
1.0495853e-52
6.3868303e-54
2.7413776e-50
4.2854269e-53
3.5518223e-53
8.9487228e-50
-1.5585699e-55
1.4918052e-53
3.3406021e-52
-2.0231275e-55
1.8030176e-56
3.876888e-53
-2.5344515e-55
5.1021034e-56
7.4328397e-53
5.9982205e-56
2.008648e-52
6.2446808e-56
3.0084985e-59
2.2078431e-63
7.1044043e-66
3.500106e-62
1.2485907e-53
1.3144348e-51
4.2791682e-53
7.4630251e-56
1.8481333e-53
5.2891536e-55
1.2489213e-56
3.4711678e-53
8.6157677e-55
-6.576584e-59
2.0190887e-53
5.0128959e-55
-1.5514247e-58
1.7617325e-56
5.0209016e-58
-1.7118869e-58
4.9374486e-56
1.6625939e-57
5.7076453e-56
2.0930808e-59
2.710717e-57
1.1079344e-29
1.7658429e-29
9.8145544e-28
1.5839569e-31
1.9550624e-29
4.243598e-29
3.9737431e-27
1.6423859e-26
3.635744e-26
3.7561951e-24
6.8715077e-26
7.5932865e-25
1.0838638e-22
-6.8655318e-54
2.371877e-26
3.1265033e-24
-1.340548e-48
6.8633759e-53
2.6556334e-48
-1.810221e-43
4.8325809e-48
4.4973486e-43
3.6747892e-43
6.4764042e-38
-2.8139577e-38
3.9460796e-34
5.3724433e-34
1.5952106e-29
7.7947329e-36
5.2593149e-31
1.6610815e-31
6.5415921e-29
2.5865734e-28
2.1962025e-30
5.5440704e-26
7.5889322e-28
4.0859949e-29
1.1933097e-24
-3.2064763e-52
1.2359639e-30
3.7029918e-26
-3.0182972e-47
3.3428538e-51
6.6226523e-47
-9.9241592e-43
1.3075664e-46
3.1708389e-42
3.1811124e-42
1.3010143e-37
6.8603992e-45
5.7267974e-30
2.4234099e-29
1.4683772e-27
2.2149694e-31
1.4445445e-32
1.2253005e-31
1.8544748e-29
1.0841399e-32
2.2192637e-34
2.2019574e-30
2.5060342e-32
9.6915264e-33
4.0894494e-29
-5.4619271e-52
1.5327435e-34
1.2608712e-30
-6.4763305e-48
3.1204105e-51
1.5032374e-47
-8.6654546e-44
1.996042e-47
3.8549222e-43
3.7538512e-39
3.9804003e-39
8.6696871e-41
3.7355671e-31
9.3393208e-32
9.6556137e-29
1.5995335e-32
1.2471371e-34
3.6757312e-33
1.6066531e-30
1.7780096e-36
2.2148273e-38
3.4533111e-34
2.9993191e-36
1.8850271e-36
9.6885524e-33
-1.6317354e-42
3.0047782e-38
1.5624366e-34
-5.8238279e-42
4.4231229e-41
1.7881226e-39
-2.6068864e-37
1.1290368e-37
1.8567486e-37
3.5342471e-35
1.3199936e-33
6.2430087e-37
7.2114869e-34
2.2472035e-35
2.0478822e-31
9.5136053e-37
1.7035748e-36
1.7056309e-36
8.9276969e-33
5.0446374e-39
3.1782292e-38
2.2273003e-36
3.3626741e-40
2.1239563e-40
1.8895441e-36
-1.1405126e-42
8.4483509e-42
3.0376742e-38
-3.7388728e-40
3.0895776e-41
1.0420009e-39
-7.6004503e-37
1.7788368e-37
5.037189e-36
9.0162643e-37
2.5720953e-34
1.174961e-38
8.2486262e-39
6.6354848e-39
2.2453683e-35
3.4917972e-39
4.6493931e-40
6.9941116e-40
1.7127152e-36
6.3642754e-41
9.0218034e-42
4.0746933e-38
1.4157555e-44
1.0213757e-43
2.7624773e-40
-3.2569775e-44
3.0540942e-45
8.4974515e-42
-1.4382063e-40
9.2113585e-42
2.5443167e-40
-3.4193729e-38
3.0360958e-39
6.4390352e-37
1.2975698e-38
1.2101858e-35
5.5849468e-41
2.1431832e-42
2.6746623e-42
6.629621e-39
1.0548824e-42
2.7392703e-43
3.7336438e-43
7.0090705e-40
1.0365049e-45
4.7411594e-45
9.3157777e-42
3.1239602e-48
4.9147292e-47
1.0312195e-43
-3.4737485e-46
4.7031865e-48
3.4002632e-45
-9.0345875e-43
3.9994097e-44
1.5701883e-41
-2.615325e-40
1.5088678e-42
5.5044964e-39
1.8605641e-41
9.3934799e-38
3.3260325e-43
1.0984813e-45
2.5774852e-42
3.2414047e-46
9.5754575e-44
2.1113524e-46
3.6475127e-43
9.5023326e-45
5.8868177e-49
4.8412364e-45
1.1046963e-46
2.489189e-50
4.8734306e-47
9.7682723e-49
-9.1252624e-47
2.1000532e-46
5.2845769e-48
-4.5497621e-46
8.6176953e-44
1.9520812e-45
-4.9923921e-44
1.5204037e-42
3.793309e-44
1.8116359e-41
1.7408997e-46
4.3918345e-43
4.5294105e-30
2.9443254e-28
6.1044217e-28
4.7959314e-29
4.3251684e-27
5.0841261e-27
2.93099e-25
8.1125611e-25
1.3709215e-24
1.6297553e-22
1.6536068e-23
1.0582362e-22
8.405369e-21
0
1.5649097e-24
1.2711982e-22
-2.7118434e-20
1.3098097e-21
1.1940379e-19
-5.971923e-21
5.8788479e-20
2.4187087e-17
1.8579736e-21
2.6242349e-19
-2.963935e-37
6.2618844e-27
1.8764628e-26
4.6467166e-24
6.9034361e-28
4.2329732e-28
9.773808e-29
6.1407531e-26
1.0608804e-26
6.7024303e-29
2.17616e-24
1.3134219e-25
3.6724433e-27
1.3053531e-22
-3.7775892e-26
1.0773582e-28
2.0231042e-24
-2.4934639e-22
7.672718e-26
2.246569e-21
-5.2750803e-23
2.9353024e-24
1.0104591e-19
4.4217055e-26
1.3281987e-21
1.4239877e-25
9.8728509e-31
2.6202502e-28
1.2557829e-25
5.7104459e-29
2.1450577e-31
3.9249746e-32
2.3635343e-28
1.787654e-31
7.8946973e-33
6.9256437e-29
3.6334928e-30
3.74135e-31
3.709553e-27
-1.75863e-30
1.1207642e-32
1.1437757e-28
-5.8126695e-27
8.6680021e-30
8.2529429e-26
-3.9586244e-28
2.8471208e-28
2.9299191e-24
2.7292921e-30
4.3818449e-26
5.7614698e-33
1.2294514e-32
1.5739903e-29
8.6039345e-28
4.5672102e-31
1.6694944e-34
1.4222984e-33
4.3775889e-30
4.0541159e-35
5.975401e-38
8.3702322e-33
3.6543239e-34
1.151377e-34
3.8355614e-31
-2.6302059e-34
1.8150372e-36
1.1990479e-32
-5.8643458e-31
1.5257597e-33
9.2526488e-30
-9.8637011e-33
4.701592e-32
2.8408909e-28
3.6428502e-35
2.7216964e-30
1.9847095e-34
5.2711863e-34
1.2346133e-31
4.1667161e-29
3.1722548e-32
6.4648789e-38
5.485331e-36
2.2008854e-32
2.0131001e-38
4.5047934e-38
5.0145065e-36
5.727308e-38
1.3695493e-38
1.1697564e-34
-5.9065984e-38
4.2928865e-40
1.9604731e-36
-9.5587619e-35
4.0114669e-37
1.6208887e-33
-1.0335933e-35
8.5881956e-36
4.6931547e-32
6.4252094e-35
6.3738064e-33
2.0777641e-36
2.5544425e-34
1.124641e-35
9.2673009e-32
4.6975665e-35
2.3838643e-39
4.2177966e-38
1.6971859e-34
4.3238258e-41
4.6029946e-39
2.1592229e-37
1.7189481e-42
2.7410427e-43
1.4045234e-38
-1.8339615e-41
2.3176223e-45
4.5766957e-40
-1.4466315e-39
1.121361e-40
4.0272846e-37
-1.5295084e-36
7.466406e-40
1.0809067e-35
1.7263748e-36
5.9589886e-34
1.1666881e-38
3.2862167e-39
5.9711294e-39
1.1231595e-35
1.0559158e-38
9.383751e-42
1.8065188e-41
3.0221655e-38
4.4752404e-42
6.0409856e-43
2.3356599e-39
5.6686534e-46
3.4912413e-43
3.4842722e-41
-9.6170146e-46
3.1218245e-45
3.738279e-43
-3.113877e-42
7.8891519e-44
1.3125111e-40
-7.644962e-39
8.4980084e-40
4.8399278e-38
5.9801709e-40
3.7732156e-36
1.9283852e-41
1.252151e-42
5.8335852e-39
3.0024601e-42
1.3749069e-40
3.3188435e-45
1.9333192e-41
5.3171217e-43
1.4260822e-45
5.8045404e-43
1.3519462e-44
6.9490967e-46
1.0900765e-42
1.8444246e-44
-4.9828607e-47
1.889028e-44
5.2497479e-46
-3.3725521e-42
3.7474138e-42
1.201525e-43
-1.0819595e-42
1.4535242e-39
3.0293384e-41
6.039731e-40
3.4739294e-45
1.1296626e-41
4.2510245e-30
9.9174712e-30
5.7126654e-28
8.9218891e-31
1.6001531e-27
1.761596e-29
2.9145804e-25
4.5200693e-24
1.1196115e-23
1.3968266e-21
5.9185132e-23
2.1871874e-22
2.0080005e-20
4.3326773e-28
1.4307047e-27
1.86315e-22
-1.718351e-19
1.7614032e-24
2.9123722e-19
-8.9201948e-20
4.9883517e-19
9.9881071e-17
2.9954875e-21
5.1013019e-19
-4.8706917e-23
4.6316962e-24
2.1558241e-23
1.9040947e-21
1.9832775e-22
5.1124286e-29
1.3863345e-28
4.697562e-24
1.0935389e-25
4.4636497e-28
1.7951697e-23
1.3810424e-24
1.8160446e-26
5.6408308e-22
3.9639623e-27
1.2448739e-28
3.4116462e-24
-1.2291076e-21
5.4227018e-23
4.2455632e-21
-5.4745851e-23
1.4162921e-23
8.1042555e-19
2.1047189e-25
4.330035e-21
0
1.9633704e-27
7.1246207e-26
1.0738056e-22
3.4054186e-24
1.6388028e-30
7.9818187e-29
6.1958356e-27
1.4688857e-30
7.7194894e-34
5.1598586e-28
3.2746525e-29
1.560688e-30
2.1837418e-26
-2.3397644e-27
1.5534523e-28
1.2219937e-26
-3.3637988e-26
4.1260795e-27
5.3257558e-23
-6.8964623e-26
2.9372137e-29
1.712933e-23
5.2409342e-25
5.852876e-23
9.1574578e-27
2.7139326e-30
0
1.3341602e-25
2.4709623e-28
1.2500771e-33
2.0931455e-31
2.0208119e-28
3.8132024e-34
1.2591923e-33
1.8538624e-31
5.4167053e-33
1.5240046e-34
1.9390762e-30
-3.000777e-31
1.028871e-31
2.5551492e-28
-4.5990839e-30
5.5078026e-31
4.1350241e-27
-4.2698029e-27
5.8853111e-29
6.7282674e-27
1.5419012e-27
2.0904176e-24
2.5106655e-29
1.2842613e-33
0
5.9051277e-29
1.2846433e-31
5.1588659e-36
0
2.5292445e-31
1.4116299e-36
0
8.547474e-34
3.7732855e-37
3.8621332e-38
2.7046349e-34
-1.2234318e-35
1.0714237e-35
7.4845922e-32
-5.7544912e-33
1.072427e-34
5.5804597e-31
-2.6750126e-30
7.4178275e-33
8.0184093e-29
9.2866619e-32
1.0715394e-27
6.5758461e-33
2.7565803e-35
0
4.4050913e-32
1.6266696e-34
2.3808154e-39
0
1.0108921e-34
1.6012133e-40
1.4962697e-41
4.4771805e-37
7.3167123e-41
1.7307148e-41
5.4323252e-38
-3.8150184e-39
2.7808684e-39
1.0715788e-35
-8.5645184e-37
2.8050991e-38
1.0846307e-34
-1.7317178e-34
1.6872538e-36
7.602179e-33
1.0783683e-37
9.3313871e-32
2.0591595e-36
2.5153633e-39
0
1.0715303e-35
3.0830899e-38
1.4576758e-41
0
2.5138683e-38
5.0284412e-42
1.5130404e-43
3.713738e-39
1.1418761e-42
1.5643811e-41
1.5414983e-39
-1.3243387e-42
8.6664637e-43
2.7832272e-39
-2.4356746e-40
5.1191697e-44
2.843706e-38
-4.4926494e-38
1.1917419e-40
1.7885426e-36
4.5175063e-38
3.4421093e-35
1.0433586e-39
5.5674499e-42
3.3673203e-38
4.6642913e-41
7.1672419e-40
7.3012353e-45
6.048684e-41
1.6224612e-42
6.4604026e-45
2.1956534e-42
4.0328134e-44
3.7393741e-44
3.3953278e-41
5.0139272e-43
-5.3894319e-46
9.1130881e-43
1.2942465e-44
-1.3831661e-43
1.7052902e-41
2.5140229e-43
-1.438197e-39
9.9655991e-39
2.4927281e-40
9.2968553e-37
2.5232975e-41
2.0784643e-38
1.6916677e-19
1.583951e-19
4.9369109e-17
3.0353237e-20
0
1.8418334e-24
1.6916522e-19
2.6151078e-23
4.2974285e-23
3.6543389e-21
1.1347286e-22
2.1727416e-24
2.0129104e-20
3.1710059e-21
1.8700497e-20
1.9574362e-18
-1.6054416e-18
-3.9782032e-21
7.5061534e-16
-1.0458221e-20
4.285272e-19
1.0168797e-16
1.7487686e-22
9.7033572e-19
0
4.3652189e-22
0
1.6958036e-19
0
1.1460664e-24
9.5841492e-23
1.0009743e-20
5.3016e-25
2.4294552e-27
1.4740373e-22
4.786854e-24
7.5842601e-24
6.8787622e-22
5.191622e-23
7.2319429e-25
2.4281198e-20
0
-4.8643607e-26
2.9521872e-22
9.2906362e-22
6.0665694e-24
1.2070903e-18
3.192702e-21
4.5516437e-19
1.52788e-22
5.5731148e-25
0
3.2615082e-22
1.3663733e-23
3.3029479e-25
2.3567127e-26
1.1926394e-22
9.7836977e-28
1.1250029e-29
2.9646779e-25
2.0240156e-26
3.5076659e-28
7.6540763e-24
7.5772272e-28
1.0790462e-30
7.5488407e-25
-5.2666778e-27
1.9659484e-25
2.9837862e-23
-1.3228906e-26
3.1439878e-29
2.3203473e-23
0
7.2398566e-21
6.7788048e-27
1.385294e-27
0
3.8838423e-25
6.525565e-28
2.2633555e-30
0
1.5368372e-26
4.3600231e-32
4.5366345e-36
1.3652697e-29
7.4604774e-31
4.2382946e-32
3.5195564e-28
3.8224221e-31
1.8086196e-30
2.1550923e-28
-6.5824773e-30
0
1.15376e-25
-1.4314887e-27
6.9397713e-29
8.0924628e-27
0
2.1970333e-24
9.2057511e-30
4.6085545e-32
0
3.9833079e-28
8.5464698e-31
3.6026688e-34
7.3020125e-34
7.6329254e-30
7.6500639e-36
1.0546388e-35
2.4180456e-33
1.6353396e-34
7.2355539e-36
4.2489195e-32
2.0418093e-33
0
1.0851004e-30
-6.3675831e-32
0
1.1788382e-28
-5.5914548e-31
2.0107678e-32
1.1805427e-28
0
6.4186899e-28
2.7701226e-31
9.7996049e-35
0
2.4983929e-32
1.062868e-34
3.3679418e-34
1.3423453e-35
7.9936328e-32
4.1700954e-38
6.5126663e-36
5.9919341e-34
1.4238063e-38
3.1124145e-40
7.3287896e-36
2.3380562e-36
0
3.0599238e-33
-1.7258163e-35
7.6965207e-36
6.7846203e-32
-1.38723e-34
1.717714e-36
2.4441375e-32
0
2.4940732e-31
2.437671e-34
2.3492512e-38
5.7347476e-39
6.8050506e-36
2.8850461e-38
3.8143376e-38
4.0744147e-39
1.3463207e-35
2.0537524e-38
1.6455697e-39
5.4333533e-36
7.0259678e-41
3.5258318e-40
3.3291928e-38
8.6639722e-40
3.3659624e-40
2.0242249e-36
-2.844573e-39
2.0607484e-39
7.7299996e-36
-1.0317563e-37
2.5971887e-40
3.6236123e-36
2.0016259e-39
2.2716644e-34
3.3544544e-38
1.7070092e-40
2.6136676e-37
8.0399071e-40
6.6040804e-39
5.0000086e-42
4.246685e-39
6.8821289e-41
2.7360833e-42
9.7160874e-40
2.6576443e-41
1.1769456e-42
7.6482657e-40
1.0480805e-41
9.9282695e-44
3.3430619e-40
4.0359901e-42
-1.9340087e-42
2.0791652e-39
2.5373309e-41
-7.021835e-40
2.6315168e-38
5.3515692e-40
1.0389521e-36
1.9042397e-41
2.5752679e-38
0
-1.7408196e-19
1.8882802e-16
8.0783035e-17
0
8.9854506e-20
6.00073e-17
0
5.2555812e-23
3.4016652e-21
2.34738e-20
1.1563167e-20
1.6619891e-17
-1.0557341e-17
1.8404104e-22
1.2537653e-17
-2.3966327e-17
5.629156e-17
1.8617281e-15
-3.1543509e-18
-8.2405882e-19
5.407243e-17
-5.6451748e-19
8.2692851e-17
0
8.0501031e-23
-2.1739232e-24
3.3161339e-22
-4.7814825e-21
6.2988641e-21
0
4.9818191e-19
1.0504448e-22
1.4144747e-22
1.6489135e-20
1.445801e-22
0
1.6802551e-20
0
3.1283596e-23
2.4190162e-20
4.185913e-19
0
7.84477e-17
3.0355006e-21
0
4.6857419e-18
0
3.0591231e-18
0
1.0309557e-23
1.4499859e-23
4.5652968e-22
-4.4479759e-24
1.2332017e-24
0
6.7627404e-23
1.0576938e-24
8.0184848e-27
1.9421588e-22
2.3637381e-26
0
1.219062e-23
0
0
2.4303004e-24
3.0916098e-23
8.8509812e-25
1.6027809e-20
0
2.3366084e-25
7.8916662e-21
0
3.9401898e-20
0
7.5399839e-25
1.1570467e-25
3.9447014e-23
-1.3616503e-27
2.3476932e-28
1.1328681e-28
1.2411158e-24
1.2221481e-29
8.1300304e-34
8.2563206e-27
1.0455063e-29
2.1126917e-31
4.6172054e-27
2.0612523e-30
0
9.8456077e-28
1.7281031e-27
7.6136914e-30
9.9858012e-25
2.9654622e-28
5.0253966e-31
2.4314059e-25
0
1.0727881e-24
1.6886732e-28
3.7240663e-27
0
4.2394639e-25
-1.5792708e-27
9.5293037e-31
7.7495937e-31
1.0024458e-26
1.1707602e-33
1.2945998e-33
1.5750335e-30
8.0306216e-34
9.9558614e-36
2.5415259e-31
5.8315536e-33
1.6279096e-34
1.0651175e-30
1.776608e-30
9.9479683e-30
1.2445984e-27
1.2716459e-31
7.2151681e-31
5.3393686e-29
9.8592249e-33
8.3164657e-28
2.4508584e-30
2.7444007e-32
3.3535022e-32
1.9047049e-28
-3.4502337e-30
4.9200828e-35
1.906491e-34
8.8284891e-31
1.9631004e-35
3.0255006e-36
9.6024724e-33
1.0912323e-37
6.3720797e-40
3.7238631e-35
9.3183319e-35
1.2632859e-35
3.0939276e-32
2.7909974e-32
6.1551723e-33
3.3774882e-29
4.4179372e-34
0
4.692096e-31
5.4013409e-35
1.227929e-29
3.1862222e-33
3.0897724e-36
1.2270573e-35
3.6199296e-32
-2.6442055e-33
2.1818636e-38
6.1918988e-38
2.0716151e-34
1.2055623e-38
0
3.7218354e-36
2.3999446e-40
7.0461325e-40
6.4639447e-38
1.2706158e-36
7.2750171e-38
6.1331658e-34
5.1383074e-36
1.621516e-36
8.6985463e-33
5.6625843e-37
0
7.760906e-34
0
8.8238067e-33
2.9029063e-37
1.0012411e-39
1.2455214e-35
-2.7212292e-37
3.9046035e-37
6.7095933e-42
6.4657098e-38
1.5200377e-39
5.4191086e-42
7.935958e-40
2.065459e-41
2.1643865e-41
2.9367072e-39
6.1682903e-41
4.2144314e-40
2.7563724e-37
3.0086405e-39
7.8894216e-40
1.6079994e-36
1.845789e-38
4.2097239e-40
5.6622832e-37
7.0496827e-39
5.396128e-37
3.6085605e-41
1.3555698e-38
0
0
6.6568925e-16
0
2.782414e-19
9.0465661e-19
6.4057376e-17
2.7950991e-19
1.7759804e-22
1.5393367e-21
2.5030338e-18
5.0450089e-20
1.0164999e-16
1.949388e-18
-1.1462177e-20
2.9933146e-15
-5.1237427e-19
1.565193e-16
2.2270128e-15
-2.1190537e-18
-4.0834893e-19
1.0684919e-17
-1.6648033e-20
1.0854767e-16
1.4084195e-18
1.1365574e-20
2.0223575e-21
9.5824105e-18
-9.5954158e-18
2.3645e-20
0
1.0782728e-18
5.855174e-22
4.9412118e-22
3.1054417e-20
4.4648348e-22
0
8.5616904e-20
0
-4.0917226e-25
1.3174828e-20
1.7282526e-18
0
2.4774046e-16
2.7664939e-21
7.8534525e-20
6.3710561e-17
0
8.3113478e-18
0
1.0196352e-24
1.1193685e-24
1.5584956e-20
-1.3107268e-20
1.8819923e-24
1.1174479e-27
3.5809808e-23
8.0929217e-24
3.4794916e-26
6.7424857e-22
7.8310051e-26
0
1.3185299e-23
0
-5.6578994e-29
2.0982e-24
1.1727555e-21
1.2421082e-23
2.5771304e-19
4.9330945e-22
7.0646152e-24
2.4340381e-19
3.1052544e-24
2.4718506e-19
0
4.6109241e-26
8.8463799e-26
4.3378401e-23
-2.1076479e-24
3.5995653e-26
3.4102782e-27
2.3558126e-24
8.3726133e-28
0
1.3754076e-25
7.6079145e-28
3.6847002e-32
1.2297823e-25
9.4781067e-30
-1.6994714e-31
5.814141e-27
6.6058928e-26
9.1483828e-30
1.3357744e-23
1.8177033e-26
1.245658e-27
7.3547436e-24
5.6757e-29
4.2053406e-24
7.5809067e-28
4.0077164e-26
1.0200022e-25
1.195523e-24
-2.5272759e-27
4.4431539e-29
1.0590829e-28
6.3406638e-26
3.6292319e-31
6.9786639e-34
5.9611571e-29
1.5278771e-30
2.1435812e-32
3.5054398e-28
2.4318462e-32
1.929206e-35
8.8497524e-30
1.0703607e-29
5.073245e-30
4.4859796e-27
2.0318181e-30
9.3947543e-33
1.3082783e-27
7.7876352e-29
1.2208639e-26
1.6163594e-29
2.0562873e-27
3.3009242e-28
1.4934096e-25
-1.6292469e-27
3.8139841e-31
9.7504926e-31
3.1353217e-27
1.3762405e-34
3.5088356e-33
5.282917e-31
8.3565119e-35
3.4553677e-36
2.1527769e-32
5.5358047e-34
2.361781e-35
9.1951702e-32
4.7121639e-31
2.4731912e-31
2.3281192e-28
2.7182341e-33
1.227801e-32
1.612935e-30
8.3739356e-32
3.5575193e-28
1.7565552e-32
2.4926581e-31
1.2317686e-31
5.1965432e-28
-1.027453e-29
5.7052161e-35
3.4684255e-34
1.6569965e-30
2.6265834e-37
7.191314e-37
4.764829e-33
1.3471047e-38
3.8029506e-41
3.7702319e-36
1.4762474e-35
7.8907454e-37
2.0090942e-33
1.0592668e-33
5.2376359e-35
4.7406349e-31
4.7169445e-35
4.059489e-36
2.6679241e-32
1.9846917e-35
2.0838507e-31
1.7972794e-36
2.0195538e-35
1.342976e-31
-1.635205e-32
5.3315515e-33
3.5461569e-38
3.5963615e-34
7.4720601e-36
2.6578334e-41
7.4470087e-37
9.6962563e-39
2.0185017e-41
2.8524524e-39
6.3044813e-41
4.1844579e-39
1.290024e-36
1.0347124e-38
1.1686365e-37
5.310943e-35
8.3341064e-37
1.3923434e-38
7.2694135e-36
1.0531624e-37
2.0183658e-35
2.2190014e-40
2.2853693e-37
-2.6090922e-17
-3.7837672e-16
2.5864703e-15
8.5810572e-16
2.3886625e-19
0
9.9046335e-18
2.4004301e-19
-1.8129699e-24
1.8920377e-22
7.0931536e-18
3.8470404e-18
1.7697478e-16
-8.2259891e-16
8.0229059e-16
1.4810486e-14
-1.3757156e-17
-1.22278e-16
1.3400036e-15
-8.8942115e-19
-2.5395751e-18
1.2390564e-19
-1.969214e-19
4.1513201e-17
-2.7526533e-20
5.5610989e-19
-7.0026934e-18
5.7312212e-16
0
0
0
9.4349822e-18
2.4535217e-20
3.2171929e-24
7.1012949e-22
2.6207986e-19
1.5444002e-21
1.1253099e-17
1.5748184e-17
1.9383392e-19
1.3398333e-15
1.0000295e-19
-2.5845731e-19
4.1160261e-16
-3.32713e-19
-2.4429237e-19
9.6366592e-17
0
9.2672775e-18
-2.51565e-20
0
7.3034209e-21
4.8249819e-17
-5.5244189e-17
2.585783e-24
-1.3627586e-25
3.1536629e-23
1.1993748e-23
5.2439989e-24
7.0344599e-22
3.4600344e-24
1.1110841e-28
1.5660948e-21
1.5506859e-21
2.8146278e-23
1.922606e-19
3.3874785e-24
-4.8152143e-25
8.1216769e-22
-1.5177516e-21
-2.3647392e-25
6.3204564e-22
4.7827782e-24
5.6331898e-19
-6.1240594e-23
8.5038888e-30
2.926938e-23
1.6497537e-19
-1.5765729e-19
1.0361109e-25
2.0727778e-26
5.9276636e-24
6.2709786e-26
0
5.1026229e-24
1.6875314e-27
1.1073391e-27
2.3539591e-25
1.2627147e-25
4.5801423e-27
2.8026791e-23
1.2523848e-25
9.6060786e-26
2.9423523e-23
-1.588342e-27
3.052699e-26
7.255284e-24
3.6737916e-28
9.1796221e-24
-5.3888988e-27
3.956258e-26
3.149319e-26
2.33141e-22
-2.0273328e-22
1.8270517e-28
1.5278209e-28
1.3720229e-25
1.1251302e-28
4.479194e-30
1.4053082e-26
2.4583908e-29
7.943801e-31
3.4428702e-27
1.2844211e-29
7.1569943e-31
4.6005677e-27
7.5284676e-28
2.0176223e-30
1.6675342e-25
1.2943579e-29
0
2.3539714e-26
7.0061995e-28
1.6351497e-25
-1.607284e-29
6.1629113e-26
1.6128416e-25
4.0507418e-24
-4.9404294e-26
2.6123787e-28
5.5105443e-27
3.2759174e-25
4.0071218e-32
5.321323e-31
5.402394e-28
4.4549852e-33
5.712928e-34
6.0401395e-30
2.1835441e-33
2.0440185e-36
8.1082034e-31
3.1640529e-30
0
7.41204e-28
1.2419596e-32
0
1.3142398e-29
3.1916119e-30
8.367245e-27
1.3629306e-31
1.2599804e-26
4.2393322e-27
5.9236973e-25
-1.8226789e-27
1.2114509e-29
5.7240011e-29
3.1099935e-26
8.1325502e-34
2.8817692e-31
1.6657516e-29
5.5406684e-36
3.1780753e-37
1.386544e-33
2.8485001e-35
3.1347354e-35
2.1809266e-33
3.0052795e-33
0
5.4130805e-31
9.8914205e-35
0
5.5502584e-32
1.1044947e-33
1.9782316e-29
1.3432579e-34
1.5691915e-29
4.9199768e-27
-1.0224031e-28
1.2762544e-28
8.9731804e-33
6.5094788e-29
9.3924741e-31
2.6790547e-35
4.8785467e-31
7.7372915e-33
1.2409996e-37
3.8197141e-35
5.7301039e-37
2.0894007e-37
2.7397271e-35
6.0190074e-37
3.2160793e-37
6.2506759e-35
1.0430367e-36
3.071475e-38
1.4401227e-35
1.7418767e-37
1.1120403e-33
2.563588e-38
1.2906895e-35
0
-2.1170456e-18
1.8162351e-15
2.3067383e-16
-9.2088303e-26
0
4.5916287e-17
4.6689329e-25
-2.1187182e-24
1.5575059e-23
-7.7101656e-17
4.9301624e-18
1.1028444e-16
-7.4882517e-16
2.1817588e-15
1.7469581e-14
-6.0097492e-19
-1.9274578e-16
1.4408649e-15
-1.7336808e-21
-3.2766679e-18
2.5681769e-18
-1.5840347e-19
4.1436722e-17
-4.4752757e-22
0
-8.283854e-17
2.502036e-15
0
5.8988356e-20
0
2.2450934e-17
5.9469757e-20
-1.3375655e-24
1.8837848e-22
1.3384563e-18
0
3.0225811e-17
4.4553524e-17
8.7974408e-18
5.3800053e-15
-2.0977758e-18
-1.015515e-20
6.3922705e-16
-6.0111256e-19
-7.9368032e-21
6.321278e-17
-1.5590904e-19
7.7652317e-18
-1.9991449e-19
5.1974512e-20
5.302945e-17
1.3655107e-15
-3.4448739e-16
0
-9.3223065e-25
5.2069541e-20
2.6138672e-22
-4.718973e-26
9.9677581e-23
4.6873129e-21
3.3845261e-22
4.4859437e-19
9.3853717e-21
5.6416897e-22
8.984449e-18
1.4512351e-25
-1.3029161e-24
4.7447357e-23
-7.3219374e-21
-4.8064796e-25
1.6215177e-23
-9.6833993e-24
5.6331576e-19
-8.8896271e-22
6.8405303e-21
2.3420844e-18
8.5605081e-17
0
1.3948599e-26
-1.9641791e-22
7.0451046e-21
6.776576e-26
9.0050893e-27
5.4028984e-24
2.4334953e-25
5.5875292e-33
3.3851177e-22
1.2080858e-24
1.0356908e-25
5.9093509e-22
1.8635993e-25
-1.0724733e-27
7.8970229e-23
-7.6545264e-28
-1.0973052e-27
5.4391134e-24
-1.7110388e-26
1.1634637e-25
-4.7182217e-25
4.9903962e-20
3.5669023e-22
1.2084788e-18
0
1.3150898e-24
-3.2385412e-25
2.294235e-20
2.1485393e-29
1.6406745e-26
1.3135076e-24
2.220087e-29
2.2396911e-30
2.2548082e-27
5.9075264e-28
2.9955046e-29
1.0757165e-25
1.1489788e-27
0
2.1778561e-25
-6.328947e-27
-4.2238735e-31
5.4130598e-26
-1.4435031e-28
3.4034382e-24
-4.3774812e-27
8.2355817e-25
3.0153004e-26
3.6236176e-22
-2.152133e-24
4.9198656e-27
6.1931857e-28
1.168328e-24
2.3068779e-30
1.3223389e-28
2.4940833e-26
1.3187457e-31
1.7961779e-32
2.9267262e-29
1.1076326e-31
5.9376851e-33
3.0782066e-29
6.3104942e-30
0
1.1376994e-27
-5.0491221e-29
4.9239176e-32
6.7831808e-28
5.0012035e-30
4.7873163e-26
-1.269695e-30
1.608716e-26
4.4325341e-26
1.4574578e-24
-1.8949127e-26
4.9964595e-29
1.2530509e-28
8.4030914e-26
7.69215e-33
3.070843e-32
2.7686362e-28
7.9665265e-35
3.4151247e-34
6.9708127e-31
3.9134224e-35
2.1256541e-37
8.1462783e-33
4.1105478e-33
0
5.2758368e-31
8.5879834e-35
2.7772308e-35
1.5097883e-31
0
3.6652925e-29
-1.6768852e-34
1.6587718e-27
5.3717267e-26
-6.7088752e-28
3.4200609e-27
3.7031861e-31
1.2849094e-27
2.7774323e-29
6.0234489e-36
8.448924e-31
1.4998189e-32
1.2136796e-37
6.1990232e-34
6.4470172e-36
1.8567195e-37
1.6330015e-35
6.0570574e-37
1.001072e-36
8.1906904e-35
1.1754273e-36
7.4770093e-36
5.6953285e-33
3.8845561e-35
2.112713e-33
6.9142206e-39
1.770085e-35
9.0912459e-17
5.6187058e-17
3.49915e-16
-3.3069565e-16
4.4973071e-19
1.41354e-17
3.0152247e-16
4.473831e-19
-1.3817889e-24
2.3234675e-21
7.1083681e-19
5.939774e-19
2.0051853e-17
-5.8028221e-16
5.6127399e-15
1.6606964e-14
-2.0202419e-16
-2.3939514e-16
2.2680293e-15
-1.3848947e-18
-6.3203487e-17
1.8153168e-15
-7.858619e-18
4.0585302e-15
2.3858825e-18
1.6285633e-17
4.1252666e-16
3.561701e-15
-1.790132e-15
2.8649242e-20
3.138005e-19
5.8391422e-17
2.8044111e-20
-3.4436776e-26
8.8573263e-22
1.724546e-17
8.2526027e-20
2.8438712e-18
-1.1091804e-17
1.5498336e-16
3.2091144e-14
1.8655979e-20
-4.0792105e-18
6.0030999e-16
4.0652036e-21
-1.2413665e-20
1.0301866e-19
-8.0020209e-20
5.7499264e-20
0
0
0
2.4078144e-15
-1.012768e-15
1.0655047e-21
4.5805658e-22
1.1261277e-19
1.2251559e-21
-4.3181035e-25
3.4004591e-23
1.1105532e-19
1.361047e-19
5.211458e-18
5.3113473e-18
5.0788218e-19
1.2476049e-15
1.7639551e-23
-8.3190876e-22
1.2330131e-18
3.6551588e-22
-2.8051316e-23
5.127181e-20
-1.459628e-23
3.1566965e-19
0
0
0
8.9836273e-17
0
0
2.4632737e-22
1.1925552e-20
2.069473e-23
-3.6576968e-27
7.384254e-23
9.8906046e-22
3.0543397e-23
1.7348372e-19
2.2874408e-21
4.5116705e-22
5.0674993e-19
3.9317056e-23
-2.6017339e-24
8.6221028e-21
6.6152068e-27
-1.7243224e-26
2.8925905e-24
-6.9399475e-24
1.5051067e-25
-7.5779721e-24
5.3957954e-21
0
5.3207462e-19
0
1.1222391e-24
2.6729932e-22
9.4215118e-21
7.1158669e-27
9.5111376e-27
1.8115707e-24
1.6152108e-25
3.6658758e-27
3.0387532e-23
1.9243875e-24
2.7726132e-25
4.4924143e-22
1.5269755e-26
-1.990682e-28
4.8878429e-24
1.0068109e-28
-2.2715085e-28
6.8204464e-25
-4.7489727e-26
1.0319452e-22
-5.6060376e-26
2.1952208e-24
0
5.1607155e-22
0
4.8355211e-25
1.6009422e-27
1.2425265e-22
1.7609414e-29
3.1896156e-27
2.0334404e-25
1.6708898e-29
1.5472559e-32
3.6964602e-27
1.3622627e-27
1.0806254e-28
2.7583837e-25
2.4263142e-29
1.4426643e-33
6.8584006e-27
6.4699027e-32
-2.1235448e-32
3.894166e-28
-1.8320363e-30
3.9756796e-28
-1.1394613e-29
3.796271e-27
6.1982578e-27