/*--------------------------------*- C++ -*----------------------------------*\
  =========                 |
  \\      /  F ield         | OpenFOAM: The Open Source CFD Toolbox
   \\    /   O peration     | Website:  https://openfoam.org
    \\  /    A nd           | Version:  13
     \\/     M anipulation  |
\*---------------------------------------------------------------------------*/
FoamFile
{
    format      ascii;
    class       volScalarField;
    location    "0.08";
    object      alpha.water;
}
// * * * * * * * * * * * * * * * * * * * * * * * * * * * * * * * * * * * * * //

dimensions      [];

internalField   nonuniform List<scalar> 
51200
(
0
0
0
0
0
0
0
0
0
0
0
0
0
0
0
0
0
0
0
0
0
0
0
0
0
0
0
0
0
0
0
0
0
0
0
0
0
0
0
0
0
0
0
0
0
0
0
0
0
0
0
0
0
0
0
0
0
0
0
0
0
0
0
0
0
0
0
0
0
0
0
0
0
0
0
0
0
0
0
0
0
0
0
0
0
0
0
0
0
0
0
0
0
0
0
0
0
0
0
0
0
0
0
0
0
0
0
0
0
0
0
0
0
0
0
0
0
0
0
0
0
0
0
0
0
0
0
0
0
0
0
0
0
0
0
0
0
0
0
0
0
0
0
0
0
0
0
0
0
0
0
0
0
0
0
0
0
0
0
0
0
0
0
0
0
0
0
0
0
0
0
0
0
0
0
0
0
0
0
0
0
0
0
0
0
0
0
0
0
0
0
0
0
0
0
0
0
0
0
0
0
0
0
0
0
0
0
0
0
0
0
0
0
0
0
0
0
0
0
0
0
0
0
0
0
0
0
0
0
0
0
0
0
0
0
0
0
0
0
0
0
0
0
0
0
0
0
0
0
0
0
0
0
0
0
0
0
0
0
0
0
0
0
0
0
0
0
0
0
0
0
0
0
0
0
0
0
0
0
0
0
0
0
0
0
0
0
0
0
0
0
0
0
0
0
0
0
0
0
0
0
0
0
0
0
0
0
0
0
0
0
0
0
0
0
0
0
0
0
0
0
0
0
0
0
0
0
0
0
0
0
0
0
0
0
0
0
0
0
0
0
0
0
0
0
0
0
0
0
0
0
0
0
0
0
0
0
0
0
0
0
0
0
0
0
0
0
0
0
0
0
0
0
0
0
0
0
0
0
0
0
0
0
0
0
0
0
0
0
0
0
0
0
0
0
0
0
0
0
0
0
0
0
0
0
0
0
0
0
0
0
0
0
0
0
0
0
0
0
0
0
0
0
0
0
0
0
0
0
0
0
0
0
0
0
0
0
0
0
0
0
0
0
0
0
0
0
0
0
0
0
0
0
0
0
0
0
0
0
0
0
0
0
0
0
0
0
0
0
0
0
0
0
0
0
0
0
0
0
0
0
0
0
0
0
0
0
0
0
0
0
0
0
0
0
0
0
0
0
0
0
0
0
0
0
0
0
0
0
0
0
0
1.2828032e-27
0
1.7953778e-63
-1.6442597e-59
1.3490711e-78
4.4238799e-48
6.8753553e-67
2.3962679e-28
3.3489912e-30
3.1256129e-51
5.9757154e-46
3.944771e-51
1.9973178e-49
5.4682188e-44
5.4441327e-46
2.8090992e-28
9.6976623e-51
1.8952983e-45
5.3390354e-45
3.4594156e-50
8.7552902e-44
1.056574e-45
1.0029515e-34
1.0174508e-29
-1.0775816e-54
1.6505095e-34
7.4711087e-35
2.4110716e-37
1.0474733e-44
8.4495948e-43
1.301342e-35
5.8995795e-33
1.1653053e-47
2.3366027e-35
4.4805097e-36
2.3557389e-38
8.2905071e-44
4.1174226e-40
1.7924313e-37
2.9626886e-45
6.3580237e-50
6.7225052e-37
1.9822904e-38
2.1541214e-39
4.4958129e-43
1.1359022e-41
1.8660121e-42
1.9184833e-46
6.9034533e-50
4.9406062e-40
3.6374862e-44
2.0980444e-41
8.1333806e-44
4.6697818e-45
1.4267054e-49
9.6185348e-51
8.7631589e-53
6.8667113e-48
4.6551233e-47
1.6835987e-47
3.4796741e-45
-5.0245737e-64
2.0158438e-63
1.6627916e-49
6.6841068e-18
8.0625734e-18
6.2349412e-15
1.5661723e-13
4.7840353e-15
5.9497444e-42
5.9465165e-42
4.6695204e-37
3.0770449e-23
4.6270385e-20
3.2866973e-17
6.5427198e-16
2.0299225e-17
5.9465165e-42
1.0312419e-40
3.6886613e-36
9.8838112e-19
8.6052368e-21
5.0855326e-24
9.6802637e-23
3.6594724e-28
3.6217417e-41
1.5339273e-38
5.6818264e-36
4.9472618e-20
6.5882047e-22
2.5109056e-28
3.9468603e-28
7.4506716e-32
6.2948261e-31
6.7552088e-29
8.4840127e-25
7.6196447e-23
3.0195151e-24
6.2337881e-28
8.742266e-32
7.8892409e-38
2.8252753e-31
1.8536881e-27
1.0048261e-25
1.7278773e-32
2.1397895e-36
9.2159202e-30
3.4026924e-34
2.2406963e-35
6.6767101e-32
2.0883925e-28
3.9223332e-27
7.1847175e-36
5.2011344e-40
2.3529212e-35
2.2821805e-41
2.4301759e-40
3.2401131e-33
1.2079659e-30
2.6366452e-29
7.3169252e-40
5.2956123e-40
6.5750489e-45
6.0516722e-45
3.619874e-38
1.4873848e-35
1.0098114e-47
2.279021e-41
3.9238304e-18
1.2091214e-15
2.8913473e-13
2.586931e-11
3.7498375e-13
2.7705271e-10
2.4710132e-08
1.1454961e-09
2.0430926e-15
8.8540318e-17
1.3845562e-15
7.7927353e-14
2.2270018e-15
1.5752482e-12
7.5244604e-11
2.9853872e-12
8.6324086e-17
1.1171197e-19
5.1068331e-24
2.3159167e-22
6.5695483e-24
2.065398e-23
5.5925283e-18
1.5684982e-23
4.4949711e-19
1.8309171e-21
2.1612576e-27
9.563446e-25
9.0005164e-28
3.7918836e-27
1.4560616e-24
7.2204824e-25
2.4988168e-20
7.534147e-24
1.0543093e-27
8.4814682e-30
1.8344535e-31
1.2064201e-30
1.8875928e-27
2.4247945e-24
5.9613969e-23
8.2108412e-26
6.2203226e-29
7.5132665e-33
1.0074597e-34
5.2747582e-32
2.0990116e-29
2.6223741e-25
3.5870397e-30
5.9547993e-31
6.5867072e-31
5.589713e-33
4.8089082e-35
4.3674316e-34
1.3601954e-29
1.1734719e-27
1.322815e-33
1.4683605e-34
9.2211864e-37
1.9222171e-34
4.3921515e-36
9.4143653e-34
3.1202363e-31
7.664853e-35
3.9238842e-18
3.9203387e-18
2.7660017e-12
5.9967011e-11
9.8398718e-18
2.1502588e-16
2.8269491e-07
2.6839775e-09
2.1747129e-12
2.8370072e-18
1.2104306e-14
5.3441753e-13
5.8695572e-18
5.0335343e-12
8.7198222e-10
3.9706687e-14
8.6678811e-14
2.4047999e-18
8.5903083e-23
1.1828961e-21
5.8692491e-18
4.0747732e-14
2.2148984e-18
3.9670554e-14
7.9023953e-17
7.1388611e-20
5.1955397e-23
1.3990438e-25
1.4036086e-19
2.6183518e-21
2.9449772e-18
1.6791955e-15
3.2884301e-20
7.291754e-23
2.9965405e-25
7.0340205e-28
9.6796889e-24
5.885462e-26
2.8831987e-20
7.9252665e-19
3.7246965e-23
4.2346228e-26
9.7840044e-29
3.0483813e-31
1.852686e-31
1.910949e-29
1.1467853e-26
2.0275358e-26
2.8359682e-27
3.7917199e-30
1.0368505e-30
2.9167862e-31
1.0450897e-34
4.6089041e-33
2.8961449e-30
4.1962347e-27
8.791406e-30
1.5716544e-32
2.8676192e-34
6.1449218e-33
6.2746365e-37
1.0256825e-33
2.4345983e-30
3.6489255e-28
1.1921246e-07
4.2495908e-18
1.193955e-11
6.5234815e-13
5.6498584e-09
7.4680737e-07
4.4016289e-07
5.5716063e-10
4.0846119e-10
7.3618416e-12
9.3504199e-14
6.5231946e-13
2.7134844e-11
2.135088e-14
1.357123e-09
5.569155e-10
3.2311153e-13
1.1212119e-13
1.1299514e-16
3.4777449e-15
2.0578619e-19
2.1348988e-14
5.0038887e-18
5.512158e-12
2.3155281e-16
1.8043942e-18
1.824514e-24
2.1431744e-23
1.0067872e-19
4.7146432e-17
4.3077415e-18
2.1233413e-15
1.6812776e-19
1.7309511e-21
2.2063515e-25
3.3084031e-27
5.0005012e-22
2.837884e-20
6.756205e-20
4.4487892e-19
2.3872053e-24
2.6972728e-23
1.3368704e-25
8.3951116e-30
6.1476207e-25
1.2651178e-23
2.9889669e-24
8.1477996e-23
8.2079278e-28
4.8849584e-29
2.1454609e-27
7.6538972e-30
3.0873594e-28
7.6560022e-31
7.3070439e-30
6.4414911e-26
9.691512e-29
6.7188471e-33
3.782065e-32
1.4732743e-31
3.2143934e-34
6.2944314e-33
6.516663e-30
5.4399456e-28
7.8016464e-07
1.8507875e-07
1.0836417e-11
5.6524473e-09
2.6198803e-11
6.23271e-06
3.2041967e-07
5.922377e-07
3.5798653e-13
4.9397996e-10
1.2015439e-11
1.1202995e-11
2.619823e-11
5.3471749e-08
3.3315026e-09
4.3198177e-09
6.647188e-13
7.5445939e-14
8.4018947e-14
8.3471142e-15
1.7522171e-15
4.7925043e-12
3.644136e-12
3.1837953e-11
4.1500515e-14
5.8114221e-16
1.1238063e-21
1.1519747e-18
3.3168938e-19
5.6283406e-19
6.1789011e-20
8.2871352e-16
1.9297419e-16
3.0305932e-18
4.9124635e-23
1.6950795e-26
4.8562247e-22
3.6972084e-19
3.183546e-20
5.3816738e-19
4.7594215e-20
2.6828456e-25
2.1103743e-24
1.2768074e-28
7.7233333e-24
7.8076445e-21
1.3772258e-22
4.2516655e-21
9.3179855e-27
2.7431818e-29
1.2434007e-27
1.6952597e-29
1.2552048e-25
9.7909888e-25
1.6406007e-25
2.4339279e-24
2.8145995e-29
5.1693566e-31
4.8004473e-32
9.8291722e-31
4.1274301e-29
7.6693712e-31
1.0286204e-28
6.7137717e-29
1.4757412e-06
2.7929651e-07
3.5420505e-13
1.8891152e-07
1.0406476e-06
7.7214799e-06
6.3547352e-08
7.9134306e-07
2.628493e-14
1.0316702e-09
3.8244675e-11
3.8327651e-11
5.0636482e-18
2.1682324e-07
4.2439397e-08
1.5356168e-08
1.041414e-15
2.1480581e-14
4.4903356e-13
8.6724138e-15
2.1061048e-18
1.8778063e-10
2.2770983e-10
2.1204738e-10
9.768266e-16
1.2167124e-15
2.8611607e-17
4.8112436e-17
1.8315248e-18
1.835073e-18
8.131716e-19
6.4538034e-18
9.8523834e-16
3.7197985e-17
1.0615408e-20
8.2437757e-20
2.3422047e-21
4.9924307e-19
6.1974295e-22
5.2188108e-18
5.3185577e-17
7.9707291e-19
8.1217947e-23
1.4385235e-27
2.3705681e-23
6.0091309e-20
4.446917e-22
1.2582079e-19
1.4901606e-19
2.7541318e-22
9.200016e-25
1.454687e-30
7.0553296e-25
1.3418117e-22
7.6920368e-24
5.6200348e-23
3.1376535e-26
2.7366931e-29
1.4948278e-30
7.8865543e-31
2.1290652e-28
4.3321088e-29
1.2688496e-27
8.4710124e-30
1.0524676e-05
4.1003473e-08
5.4119778e-14
5.6292388e-07
3.4807162e-05
4.9738312e-06
4.565579e-10
3.0978998e-07
6.5491287e-07
8.900439e-09
6.6555963e-13
7.0831008e-09
8.1749963e-07
3.7804566e-07
1.5171027e-07
2.2253128e-08
2.6085759e-14
3.5039325e-15
5.5506217e-13
4.8950801e-17
8.4027814e-18
6.889504e-15
5.0435578e-15
7.7796606e-10
3.5233889e-16
2.964559e-15
2.8419583e-15
8.063015e-17
1.2130918e-18
1.371999e-14
5.518568e-15
4.8629009e-17
4.9021639e-18
4.6673416e-18
4.554903e-18
1.6159588e-18
2.8140652e-22
6.6944163e-17
8.7882359e-18
7.0815435e-17
1.4521341e-15
9.7618543e-17
1.146016e-19
1.2751539e-21
8.8316648e-25
2.4345787e-19
3.2643176e-21
3.06106e-18
2.2617613e-16
8.4484689e-18
2.9680509e-21
1.5477821e-27
7.4186929e-25
1.9907997e-22
1.7604066e-23
6.9580806e-21
1.3541041e-18
1.2844446e-20
1.1640928e-22
2.2485942e-27
9.7246681e-27
1.2634649e-27
2.5896767e-27
1.508824e-28
2.0628072e-05
1.0218002e-07
5.4119778e-14
4.4430472e-07
4.7435634e-05
4.6084684e-06
4.5069973e-10
4.4385852e-10
3.7388642e-06
2.2719577e-08
4.0599817e-14
3.461353e-08
2.6244307e-06
7.647193e-07
1.1903307e-07
1.8119316e-08
1.1791736e-06
5.1429171e-14
7.6533078e-14
1.5341643e-10
1.8444714e-14
1.2233574e-14
4.5500631e-15
8.0511969e-10
7.9199015e-08
3.5046407e-15
2.5911191e-15
7.6624594e-19
4.7784745e-16
3.0288621e-14
4.55092e-15
9.5783705e-17
1.027174e-09
1.3606597e-11
4.6749687e-18
3.3880238e-19
3.9555313e-21
8.7769981e-17
2.0413257e-17
1.4413194e-15
3.9866108e-16
3.0720196e-16
5.6646352e-18
7.6736318e-21
3.2223851e-24
3.7542702e-19
3.4111794e-19
3.3016815e-17
4.8466337e-16
2.6775584e-17
5.7657427e-20
2.008773e-22
7.8650052e-27
1.907813e-22
3.7481231e-23
2.1650246e-20
2.9805982e-17
5.4156623e-19
2.3032894e-22
8.3634158e-26
5.3594131e-27
8.0142925e-27
1.1826074e-24
5.324008e-26
1.2844587e-05
1.1936375e-06
4.0599817e-14
6.4571103e-08
4.7435634e-05
6.5142273e-06
2.5886003e-06
4.9970412e-06
1.2108745e-05
9.089236e-08
2.5666052e-14
3.3250312e-09
2.589934e-05
7.1717624e-07
2.4335299e-11
4.2899143e-11
3.9676153e-06
1.0618369e-10
2.3969365e-14
3.8761339e-09
3.2833978e-07
2.838662e-14
2.4292779e-11
5.5198228e-10
9.6666591e-08
5.934939e-12
2.3685222e-14
4.7687824e-11
4.6172143e-14
5.1353026e-12
1.8677703e-15
1.2028812e-16
6.1648636e-10
8.1229923e-12
4.600234e-16
5.9821416e-19
1.1848165e-17
1.2702485e-15
2.0823956e-16
8.5554907e-14
1.2646072e-13
6.393343e-14
8.8944178e-17
3.5157199e-22
3.926325e-21
1.6867917e-18
1.9521335e-19
2.0826149e-20
1.9295325e-15
5.5651914e-17
7.7206886e-19
1.9347572e-22
2.1599715e-22
1.1023535e-20
2.2937027e-22
2.0820764e-20
2.5886893e-17
4.6459595e-19
2.6301354e-22
2.4126971e-24
6.2609945e-27
3.6917711e-25
2.3445477e-21
7.3337947e-24
3.2746987e-06
1.3225678e-06
1.4560197e-10
1.1388781e-07
4.7435634e-05
7.8839713e-06
1.2966545e-05
4.5917525e-05
9.1430179e-06
3.5159304e-08
2.5197068e-14
2.6320282e-14
4.743346e-05
1.2850786e-06
1.1976979e-10
2.9538639e-08
2.0329211e-06
2.5197069e-14
2.472466e-14
2.6298394e-09
6.3087798e-06
1.1715725e-07
3.4997853e-10
3.2152928e-15
8.1161175e-12
8.1120398e-12
2.0161365e-12
6.5613715e-10
4.2670976e-13
3.9984893e-16
2.783605e-16
3.5886455e-16
3.0349401e-10
3.4373341e-12
8.3686693e-15
3.9892108e-12
5.1534826e-15
3.6014939e-14
1.4205439e-14
3.874394e-13
4.3732886e-13
4.2414306e-14
3.8862626e-17
6.1776107e-19
6.7531519e-18
2.9117877e-16
4.2148531e-17
1.1180135e-13
2.5003954e-15
1.0991265e-16
1.3900247e-16
6.1662485e-18
4.1725304e-20
1.0446344e-15
1.4757504e-16
2.4368862e-15
1.3809768e-17
2.1285165e-19
3.7297381e-19
7.1534551e-19
1.1497701e-18
7.6613569e-18
1.0863258e-20
7.4004225e-19
1.6488276e-06
6.7086923e-07
1.3728285e-13
5.2850733e-07
4.5172694e-05
7.0664964e-06
1.2715061e-05
6.6717431e-05
1.7138828e-06
3.5979226e-08
2.6320282e-14
4.0943168e-14
4.7419508e-05
1.3450817e-06
1.6321847e-10
3.0889348e-05
6.4463938e-07
3.1734633e-14
9.0227196e-13
3.733761e-14
3.3264733e-05
1.1227349e-06
4.1830593e-11
6.0051549e-12
8.2123294e-10
6.8343724e-12
9.0369775e-13
1.3432872e-09
4.8831953e-07
1.3643971e-09
4.002338e-16
2.8680515e-15
1.9786449e-11
2.986106e-12
3.5080911e-12
2.6040621e-10
4.236944e-14
6.28684e-17
6.9849473e-16
6.4976033e-16
1.6330806e-12
4.8504833e-14
1.2210989e-13
4.9148476e-13
5.8270845e-17
7.6528336e-18
1.0862458e-17
1.5719669e-13
3.3329384e-16
1.4911248e-16
8.724626e-17
3.9355648e-18
1.2626184e-18
3.0554848e-18
3.6282888e-17
4.0752606e-14
1.6461831e-17
1.5580616e-19
4.2043142e-18
1.7098387e-17
7.0868869e-19
4.6957393e-18
4.5402754e-20
7.9516025e-16
2.377842e-06
4.5037249e-08
5.0628916e-12
5.0142654e-07
1.1868648e-05
2.9761045e-06
2.095988e-05
6.671882e-05
2.4206981e-10
3.9616111e-08
1.2728217e-08
3.733761e-14
4.3079953e-05
2.8350274e-06
1.0893352e-10
6.6717416e-05
2.3580468e-07
7.0452334e-11
2.2872716e-11
2.2472725e-14
4.3048544e-05
9.7008115e-07
1.4149034e-11
3.4076159e-05
1.4334465e-09
1.6067532e-11
5.1977336e-12
3.3818158e-14
1.4696158e-05
3.6910232e-07
1.37001e-13
1.4016031e-11
1.2037473e-12
3.2073743e-12
1.2806925e-11
2.5687878e-14
1.0013332e-06
4.4107709e-08
9.1113576e-16
2.501107e-14
3.409061e-12
1.2538149e-13
3.0400011e-12
2.1206113e-10
5.5214666e-14
1.7372801e-10
6.5396208e-12
2.8992414e-14
2.5132858e-17
8.149489e-16
1.3572036e-13
3.3662859e-11
4.1488035e-13
5.7211878e-12
6.9987306e-13
3.176876e-14
1.2790482e-16
1.1877415e-18
6.1153017e-17
2.1524812e-13
5.1955152e-15
2.3317405e-16
4.5488347e-20
3.2421431e-15
3.1126254e-06
5.553476e-12
7.9504034e-09
3.2299338e-08
6.2960183e-08
7.0544263e-07
2.5370377e-05
3.4960979e-05
2.4161093e-10
3.9613817e-08
1.4508067e-08
2.2472725e-14
1.9133641e-05
4.5031243e-06
1.685693e-06
5.0117002e-05
9.3123858e-09
1.7565349e-10
2.2470643e-14
2.2321237e-14
4.2997215e-05
1.0731867e-06
1.1758286e-06
4.6289788e-05
1.4516452e-09
2.8251837e-11
5.3201655e-12
2.2251454e-14
4.0818069e-05
1.238097e-06
2.7866944e-07
1.1728227e-05
1.2037794e-12
1.4574729e-12
1.3668144e-11
2.2173986e-14
1.7005838e-05
8.7555442e-07
5.8522365e-09
8.6048504e-12
3.7423102e-12
7.5001912e-16
3.013441e-12
3.6630461e-10
7.094095e-08
2.9931523e-08
6.3372104e-12
1.156431e-14
2.6056475e-17
7.1757088e-16
6.5421207e-13
7.6622958e-11
2.1170011e-13
1.1077912e-10
7.9520168e-12
1.7200263e-15
2.6565216e-16
2.5741315e-17
5.8324248e-15
1.1426102e-12
5.2253509e-15
3.094267e-14
2.1431264e-19
1.3851477e-15
3.2248065e-06
4.5445502e-12
1.6149472e-09
2.387685e-14
1.4219532e-06
1.488857e-07
7.6267345e-06
4.8764889e-06
4.880937e-07
2.4729247e-08
2.2470643e-14
2.2321237e-14
2.387685e-14
2.5274741e-06
5.9368026e-06
1.5720108e-05
3.99119e-10
3.2182128e-10
2.2321237e-14
2.2247611e-14
2.1995631e-05
2.5526703e-06
1.9867192e-06
4.6284717e-05
1.0639367e-09
1.4984009e-10
2.157761e-14
2.2173986e-14
3.2313146e-05
2.5834414e-06
2.1377959e-06
4.514633e-05
1.5951689e-11
1.3069063e-10
2.0829863e-14
2.1500146e-14
2.3522254e-06
8.5092862e-07
2.595699e-07
1.171242e-05
2.786748e-11
6.0353151e-11
2.3020934e-15
1.2711354e-14
1.0619914e-12
1.5898928e-08
6.6117612e-10
8.2101233e-12
1.834589e-12
1.9596992e-18
5.2811217e-18
2.3022477e-15
9.499046e-15
2.5006269e-14
1.213579e-11
2.9192398e-13
1.3931155e-18
1.7483462e-18
1.9608638e-18
2.5431059e-17
4.8185753e-15
4.4536934e-14
5.3097913e-17
1.3957939e-15
1.600474e-06
4.5445502e-12
1.8636379e-08
0.00013230855
3.7330155e-05
1.3786834e-08
1.4142611e-08
4.54189e-06
3.3774679e-06
4.5445512e-12
1.2030282e-05
9.476485e-05
4.8957248e-05
1.7477837e-07
5.0620055e-06
3.1876926e-05
2.5519459e-10
4.6777619e-11
5.8354943e-06
2.6625961e-05
3.0427674e-05
1.6408829e-06
4.3525643e-07
4.624685e-05
2.5612815e-10
1.5783494e-10
1.8526228e-06
8.2903272e-05
3.2189594e-05
1.6075313e-06
1.6983333e-06
4.619347e-05
1.4984687e-11
1.1563343e-09
5.5172362e-14
0.00017990248
6.0072392e-07
4.5342868e-07
7.4494516e-07
3.5251311e-05
2.7932268e-11
3.3832974e-08
2.7660286e-06
3.3855658e-05
2.5829541e-07
6.1449857e-08
3.7391316e-09
3.2025611e-06
9.2022429e-10
4.9947781e-08
2.3020934e-15
2.5838848e-13
2.417899e-09
2.6121707e-15
8.8449228e-14
1.7012056e-13
2.0061045e-09
9.6480417e-09
2.5380114e-17
3.2338702e-14
1.9353835e-15
4.1882717e-17
5.5497807e-13
1.1759813e-13
6.5020607e-07
4.5445502e-12
2.4351844e-11
0.0007589074
6.5922202e-05
1.3621584e-08
1.8321841e-07
3.3172454e-06
2.4064001e-06
2.5136044e-11
4.4151792e-11
0.00075010714
5.7085354e-05
1.3621582e-08
4.018737e-06
4.0523139e-05
1.5269135e-09
1.0782764e-11
3.2654149e-11
0.00087435573
2.7693579e-05
1.380989e-08
1.3660739e-08
4.3601781e-05
2.5307749e-12
6.0820859e-09
2.2971994e-06
0.00087421862
5.2051903e-05
7.296891e-07
1.4285586e-08
4.6165783e-05
2.6912297e-12
6.96518e-07
0.00012385143
0.00037880582
0.00020698225
1.1069511e-06
8.2008416e-07
4.5925773e-05
3.8134583e-12
4.9178081e-12
0.00011820536
0.00070457047
0.00012309271
2.0865097e-07
2.9211958e-09
1.1877983e-05
8.4077405e-10
5.5807861e-08
2.4482872e-05
0.00086336962
3.7350509e-06
2.6983585e-09
1.7169079e-13
1.2368315e-11
2.5338111e-09
1.5069132e-07
5.2773024e-05
0.00043516588
6.0821409e-06
8.295982e-08
3.0401827e-13
5.8059635e-13
9.9002504e-08
4.4840413e-09
4.415052e-11
0.00087311079
6.7697204e-08
1.283698e-06
1.9730295e-07
1.0627634e-06
9.1636107e-07
2.6464858e-08
4.655439e-11
0.00087447376
1.363652e-08
1.3633982e-08
2.7885754e-06
3.5390576e-05
2.7267074e-12
1.9565061e-12
1.954044e-05
0.00087454588
9.5263168e-07
1.3633351e-08
1.3657379e-08
4.4293517e-05
3.2412114e-12
2.7267074e-12
4.6979974e-05
0.00087370108
2.3298626e-05
9.3666147e-08
1.3661052e-08
4.4499407e-05
2.8413634e-12
3.7570986e-08
0.00015369125
0.00077311991
0.00010657205
1.6184634e-07
7.9875838e-07
4.1381205e-05
3.0722781e-12
1.3761795e-08
9.2952622e-05
0.00087305006
2.7015739e-05
2.0116703e-07
2.1159088e-08
1.0990653e-05
4.7403462e-10
5.6480958e-12
2.8651961e-10
0.00087121715
7.8530549e-09
7.3671587e-09
2.1031725e-09
2.6204307e-09
1.3630736e-09
1.376907e-11
2.9746817e-05
0.00087051491
4.394122e-08
2.1420276e-07
1.9453942e-08
1.0369393e-11
8.4325068e-10
5.899208e-12
0.00024598888
0.00087438847
0.00011437959
5.8072324e-06
9.1305586e-07
1.6142266e-07
2.825823e-12
1.9565061e-12
0.00028937073
0.00087454588
0.0001319503
1.3381263e-07
1.9505368e-06
1.9364162e-05
3.0896769e-12
1.9283859e-12
0.00029305061
0.00087462418
0.00013572609
1.3915446e-08
1.3660749e-08
4.4003581e-05
3.6001157e-12
1.9565061e-12
0.00031417514
0.00087452631
0.00013207421
1.2955427e-07
5.4910059e-07
4.039778e-05
3.1442674e-12
3.1568474e-12
0.00031870791
0.00087429129
0.00013467776
2.7827637e-07
5.7764723e-07
2.6363302e-05
5.5704236e-12
3.4408391e-12
0.00033052365
0.00087382217
0.00013134017
1.6123437e-09
8.072081e-10
5.8965337e-06
7.4982232e-11
3.5499613e-12
0.00030735305
0.00087304659
0.00011682356
6.2335776e-10
6.7091883e-11
9.341293e-12
1.4691941e-10
5.6480958e-12
0.00028134055
0.00087227562
7.1061428e-05
4.4748739e-10
9.3412704e-12
6.3598235e-12
7.0355518e-12
3.1641986e-06
0.0001704846
0.00051616759
9.2993485e-05
5.7314165e-07
1.2982663e-06
3.5632127e-07
6.5814784e-12
1.9284513e-12
0.0001719418
0.00065181162
0.00011042305
1.6375943e-07
1.6336363e-07
4.5180152e-06
2.0410846e-12
1.9284513e-12
0.00012794721
0.00071225528
0.00010416492
1.5626498e-08
1.3963731e-08
3.6313509e-05
2.0217827e-12
1.9282197e-12
0.00015228323
0.00065915282
0.00012025113
2.0928879e-08
1.5660774e-08
3.2379474e-05
3.3987468e-12
2.0192995e-12
0.00015557772
0.00070961503
0.00015430374
1.5813421e-05
1.3392393e-08
7.3266025e-06
3.4422154e-12
2.7769793e-12
0.00014586357
0.000728408
0.00014564577
3.1982342e-05
1.5525831e-09
1.9042101e-06
3.8827535e-11
3.4408371e-12
0.00014021626
0.00079614244
0.00013665392
6.1730091e-05
1.587088e-06
4.001679e-11
3.6978312e-10
3.5499613e-12
0.00014528239
0.00065877498
0.00011847845
8.9414834e-05
1.134026e-05
3.1874177e-11
7.9032546e-08
1.9758352e-05
2.0335008e-05
3.0320088e-05
3.1294911e-05
6.1657096e-05
8.6267959e-06
2.6666336e-07
1.0559414e-09
1.1507093e-05
2.5713536e-05
2.5653297e-05
1.8759398e-05
1.8218626e-05
7.3310084e-06
2.188436e-06
3.3849189e-12
7.1204441e-06
5.8741612e-05
2.9604553e-05
2.5763344e-05
2.5097461e-05
2.2320705e-06
3.0771261e-05
4.4242461e-12
1.3802101e-06
7.3050392e-05
3.9270376e-05
4.8422994e-05
0.0002472878
5.6562974e-05
3.2380931e-05
5.9561115e-12
2.4185024e-06
5.7169697e-05
4.677784e-05
6.8634792e-05
0.00027112789
0.00014099617
8.8335034e-06
3.9313453e-12
1.5546379e-06
6.6512356e-05
4.6970857e-05
5.7935629e-05
0.00027119405
0.00018529668
1.2953601e-06
6.0980974e-12
2.208172e-07
0.00012971597
5.4637807e-05
5.552869e-05
0.00027103553
0.00016803627
1.974027e-06
1.3996477e-10
8.2078183e-12
0.00014479445
5.272495e-05
5.3733031e-05
0.00026653148
9.8211945e-05
8.5940655e-10
8.4960684e-07
1.0771989e-05
1.0670473e-05
0.00091362492
0.0059596635
7.904334e-05
2.6569985e-05
3.7727991e-07
4.2367336e-09
6.1206426e-09
6.2267633e-08
0.00081003554
0.0077452717
9.5618165e-05
4.3537943e-07
1.2022461e-06
2.2406411e-09
4.8528032e-06
4.0558577e-06
0.00072540356
0.0070998023
9.3366286e-05
4.6613411e-07
2.5865014e-05
6.8908886e-07
6.7966664e-05
2.4887145e-05
0.0007029149
0.0063105225
0.00016895917
2.7605995e-05
1.5748393e-05
2.2376748e-06
6.8139287e-05
2.1445602e-05
0.0002471872
0.0059761485
0.00016221987
0.00011543929
3.9924037e-10
2.1286915e-06
2.1628794e-05
1.008966e-07
9.0288407e-06
0.005274082
0.00015307773
3.7592424e-05
4.845023e-10
7.7745632e-12
9.8544961e-12
8.1145151e-10
1.008959e-07
0.002681963
0.0001955021
1.7957854e-05
2.1612503e-08
9.4987215e-12
7.3638161e-12
2.5575249e-06
3.8236494e-06
0.00084751491
0.00021301607
9.9552346e-06
3.8599256e-10
1.3766358e-07
2.4284411e-06
0.0031720161
0.025246328
0.091791089
4.6245265e-07
3.845452e-07
3.7964074e-07
7.8961492e-07
0.00024537848
0.0040854522
0.027552638
0.094202898
4.3537998e-07
4.1123186e-07
7.3961137e-07
6.5743242e-06
0.00047444595
0.0046496016
0.017337347
0.090262161
6.5984215e-07
6.9213521e-07
4.942384e-06
8.3838479e-08
1.356762e-07
0.0048419288
0.019100173
0.089939231
1.370991e-06
3.8438793e-06
4.387251e-07
1.1215361e-08
5.0733389e-06
0.0024530272
0.021017273
0.081794587
2.8205481e-06
4.0919157e-06
1.0780114e-09
1.4292413e-11
4.4808358e-05
0.0029660391
0.013393294
0.075669766
1.56198e-05
2.1566503e-08
1.9533522e-08
9.8544961e-12
2.685498e-05
0.001125612
0.0090255897
0.0643739
3.4126082e-07
1.7562954e-07
1.151851e-07
1.0324297e-11
1.6344467e-05
0.00073866349
0.0050406046
0.068732674
1.0429095e-07
9.5186962e-08
1.205411e-07
1.1668013e-05
2.1152371e-06
0.032885139
0.1894354
0.18943555
0.053649832
4.6242052e-07
2.1879228e-05
1.3794805e-05
2.1152371e-06
0.044443226
0.18943554
0.18943556
0.066394763
4.3537938e-07
5.3958186e-06
0.00033438962
0.00012118726
0.040241909
0.18942334
0.18943555
0.065763136
4.6969277e-07
4.9565105e-07
0.00050025574
9.9641811e-06
0.049769856
0.18592338
0.18942313
0.068260577
4.9869009e-07
4.9069183e-07
2.384242e-05
6.2676678e-06
0.052410581
0.14189803
0.18938738
0.065609555
5.2448694e-07
1.8390919e-06
1.7710081e-07
2.6618259e-06
0.04706635
0.14547258
0.18932626
0.059281712
2.7521004e-05
3.0836074e-06
0.00010139738
6.2447697e-06
0.045101655
0.15204142
0.18910941
0.048380196
3.6215178e-06
4.5090291e-08
0.00022732404
4.0347725e-05
0.031350016
0.081130279
0.1745148
0.055369588
1.2024046e-06
6.9663406e-08
2.2867729e-05
2.2797494e-05
0.026032073
0.18943196
0.18943557
0.070143097
5.862531e-07
2.6927562e-05
2.0961597e-05
4.0559114e-05
0.035397106
0.18943555
0.18943555
0.084548622
5.2528161e-07
1.5578275e-05
0.00015055452
2.2830377e-05
0.036148407
0.18943535
0.18943556
0.084038128
4.9869008e-07
1.4861543e-05
0.00049378489
1.5840012e-05
0.02693861
0.18271753
0.18943534
0.091243374
5.2446206e-07
3.7059041e-06
0.00060735095
1.088102e-05
0.025613728
0.18936283
0.18942001
0.088546312
5.7838265e-07
6.1546441e-07
0.00060513409
6.2447242e-06
0.016504209
0.16557785
0.18936281
0.086778578
4.3564129e-07
6.8855702e-07
0.00022724036
1.0877799e-05
0.013133347
0.1606117
0.18930473
0.076419848
5.2874196e-07
2.5226839e-08
0.00011857347
8.8889347e-05
0.0066728732
0.093053967
0.18900116
0.065326593
1.8160877e-06
2.0752009e-06
0.00013091317
0.00010638062
0.002095327
0.047965071
0.078602782
5.2100994e-05
9.0328711e-07
1.5533189e-05
4.5021585e-05
0.00035235355
0.0052285188
0.044159304
0.07751257
1.3138944e-06
1.1335683e-06
7.422075e-06
6.763954e-06
0.00041632317
0.011342722
0.044390681
0.077361316
1.7778504e-06
6.7459622e-06
1.8914343e-05
4.0664843e-05
0.00048705108
0.012328911
0.03229561
0.073243764
1.7604081e-06
1.2259218e-05
1.8960225e-05
3.7466215e-05
1.5839974e-05
0.01781906
0.033248738
0.067081471
1.5629549e-06
9.739948e-06
3.8113508e-06
3.7562221e-05
9.1977877e-05
0.013171424
0.020142151
0.061669672
1.4906831e-06
4.2224522e-06
2.7430807e-06
3.8820712e-05
0.00023748904
0.0025065206
0.013482635
0.043159168
4.5874389e-05
5.8722426e-07
3.1452429e-06
0.00012623426
0.00059934648
0.00024722412
0.0049202761
0.039685472
3.5176883e-07
1.2104871e-05
2.250491e-06
2.2881067e-05
2.5054034e-05
0.00046485778
2.6773276e-05
2.7298922e-05
5.6895365e-05
2.1241088e-05
1.6956338e-05
8.774151e-06
7.4252112e-05
0.00026000081
2.6972554e-05
0.0009897995
6.5137392e-05
5.5254407e-06
7.2247006e-06
3.8619381e-06
0.00017885322
0.00054469091
0.00069516076
0.00024628708
4.7773058e-05
6.1593949e-06
1.0526334e-05
5.7226728e-05
0.00036155204
0.001513883
0.00094017755
8.3872501e-06
1.0026826e-05
2.9640386e-07
2.6785729e-06
0.00013503164
0.00035226351
0.00098868643
0.00099944128
4.3947073e-06
5.9765491e-06
2.420931e-08
3.9027513e-08
4.3742068e-05
0.00041260473
0.00099324602
0.00094883757
1.772515e-06
1.4661045e-06
7.3485326e-07
5.4566232e-06
0.00010327316
0.00069624712
0.00081839112
0.00096875784
1.9181112e-07
1.1230117e-07
7.3803327e-06
1.0848317e-05
0.00014038288
0.00062286476
0.00056657263
0.00065609655
0.0003128329
3.6477825e-07
1.0912818e-05
1.1007412e-05
3.8043918e-06
0.00010307275
0.00020731535
2.6492518e-05
2.7965736e-05
0.00031239596
0.00019632489
5.6202365e-07
3.8049043e-06
0.00011872915
0.00032942245
0.00019035723
5.6159632e-05
0.00031221925
2.8931853e-05
5.4237412e-07
3.8043951e-06
6.9960249e-05
0.00055154396
0.0005613768
0.00012159179
0.00023304345
2.7144394e-07
7.0242779e-06
2.0577589e-05
2.7023757e-05
0.00055258762
0.00069569164
8.4408843e-05
5.0924315e-05
2.5627818e-07
7.0402064e-06
3.3373152e-05
3.2900565e-05
0.00022430077
0.0011751765
9.98667e-05
0.00010502527
1.6783739e-08
1.5397185e-06
7.2333305e-06
3.5873705e-05
0.0004163454
0.0014860295
9.5839908e-06
1.1361865e-07
5.2023874e-08
2.8356474e-08
9.0820251e-06
2.3576232e-05
0.0010905561
0.0014891884
1.5276982e-06
1.1169932e-07
1.5410779e-06
3.6581708e-06
1.2297466e-05
1.5857628e-06
0.0014511254
0.0014880104
4.123375e-07
1.1236152e-07
2.5698524e-06
6.4056875e-06
3.7904373e-05
0.00025822841
0.00023925311
2.1417385e-05
2.9879646e-05
0.00031239596
0.00020915451
4.0921042e-06
0.00036736981
0.001331283
0.0013592415
0.00024782831
2.1312573e-05
0.00026114023
0.00022146719
6.2402931e-08
3.8252191e-06
0.0011038565
0.0015430562
0.0015084899
6.9524729e-05
0.00023424435
2.0062969e-05
4.3204012e-07
9.1630679e-06
0.0009019343
0.001546816
0.0010764463
0.00017590281
0.00029741202
1.3854682e-08
2.5508104e-06
3.0114495e-06
0.00079675532
0.0015460334
0.00019304378
0.00018323858
0.00030576279
1.3709678e-08
1.2883561e-06
6.7967357e-06
0.00052056468
0.0015466035
0.0003493879
1.0911884e-05
0.00032699229
1.347502e-08
1.3505911e-08
1.4633457e-06
0.00033802906
0.0015434554
0.0001954412
5.30051e-05
0.00035946021
1.3556265e-08
2.0095529e-07
1.5167004e-06
0.00028074034
0.0015375405
0.00023949129
5.4217126e-05
0.0002505864
1.4290253e-08
6.073559e-07
1.1419889e-05
5.6470045e-05
7.9153737e-05
7.5354578e-06
1.662705e-05
0.00016808809
0.00010015846
2.5951359e-05
4.6349744e-05
0.00025121525
0.0010114248
0.00042313992
9.2177837e-06
0.00013844263
0.00022201082
4.5571896e-06
8.7621421e-06
0.00014284509
0.0015378746
0.0015199355
5.7519489e-05
0.00024454299
8.3417674e-05
1.6124378e-07
1.3590251e-06
0.00027205007
0.0015428193
0.0011762406
0.00016697077
0.00029728942
1.3664859e-08
1.5015285e-07
1.3979103e-06
0.00032095342
0.0015460334
0.00020294927
0.00020985036
0.00039629609
1.3474962e-08
1.6823604e-07
1.4267899e-06
0.00028235677
0.0015434179
0.00030114664
5.0325172e-05
0.00041909312
1.3482779e-08
1.3476131e-08
1.4478484e-06
0.00029025203
0.0015380321
0.00023752317
0.00010025968
0.0004735392
1.3474967e-08
1.8840395e-08
1.5743588e-06
0.00020834357
0.0015338495
0.0001004051
7.6986812e-05
0.00047534899
1.3556265e-08
1.4810438e-07
8.326303e-06
7.1803974e-06
9.2538423e-06
3.2834766e-06
9.2244517e-06
1.1461131e-06
6.3458735e-06
2.4425065e-05
5.2207092e-06
1.3809889e-05
6.6472573e-05
7.4010102e-06
6.0164839e-06
3.7275924e-05
2.3009254e-05
1.475749e-05
4.9503089e-06
6.5389273e-05
0.00028260825
0.00060319997
4.7480312e-05
0.00014288054
6.0491257e-05
3.8340773e-06
1.3493672e-06
9.8372715e-05
0.00032227071
0.0011756065
0.0001105212
0.00023308061
1.2929126e-05
1.2182514e-07
1.359024e-06
0.00018995068
0.0013718102
0.001146886
0.00019712635
0.00028065054
1.3495836e-08
1.1594894e-07
8.5952855e-06
0.00027000092
0.0015387671
0.00015574654
0.00026475725
0.00038466276
1.3474962e-08
1.844681e-08
1.7252641e-05
0.00026392333
0.00092263407
3.9185902e-05
0.0001456924
0.00047931918
1.3495836e-08
2.7642025e-08
1.2871813e-05
0.00025757608
0.00020725907
6.2812816e-06
0.00010542143
0.00048075037
1.3563504e-08
1.0647258e-07
5.0211404e-06
7.1842836e-06
1.1275882e-05
1.2386239e-06
2.8880103e-06
7.6310074e-08
6.992583e-07
8.7171457e-06
4.8963926e-06
2.1297926e-06
1.6377644e-06
1.1552548e-06
5.2134253e-06
4.3892842e-06
1.9027167e-06
7.5733909e-06
1.5255339e-06
2.2911862e-06
1.2042964e-06
4.4306447e-05
1.8367195e-05
0.00015988969
1.4750755e-05
6.1904902e-06
1.3493672e-06
1.3832917e-06
1.4462916e-05
0.00037767307
8.3733681e-05
0.00033609869
3.0686172e-05
9.159435e-06
2.4223507e-06
5.41121e-05
0.00027394946
0.00055729201
0.0001129177
0.00026755741
1.3634409e-08
8.605303e-06
1.526405e-05
0.00028293499
0.0006045145
0.00020464902
0.00027094439
0.00037886616
1.3495836e-08
1.3634409e-08
2.8103645e-05
0.00028185145
1.4921105e-05
9.1488088e-05
0.0002087562
0.00048426962
1.356133e-08
1.3547952e-08
1.5683558e-05
0.00027881487
1.3341817e-05
8.6746346e-07
0.00011825658
0.00048521135
1.3550219e-08
2.3902264e-08
1.3564682e-06
7.0489035e-06
1.3463119e-05
1.255632e-06
3.2428916e-07
4.7692672e-08
1.1474483e-06
7.6157146e-07
3.3156203e-06
2.7368174e-06
2.1033093e-06