/*--------------------------------*- C++ -*----------------------------------*\
  =========                 |
  \\      /  F ield         | OpenFOAM: The Open Source CFD Toolbox
   \\    /   O peration     | Website:  https://openfoam.org
    \\  /    A nd           | Version:  13
     \\/     M anipulation  |
\*---------------------------------------------------------------------------*/
FoamFile
{
    format      ascii;
    class       volScalarField;
    location    "0.08";
    object      p_rgh;
}
// * * * * * * * * * * * * * * * * * * * * * * * * * * * * * * * * * * * * * //

dimensions      [1 -1 -2 0 0 0 0];

internalField   nonuniform List<scalar> 
51200
(
0.92764054
0.91383553
0.90579179
0.90266706
0.90266552
0.90578731
0.91382871
0.92763228
0.91743971
0.90424837
0.89689774
0.89411522
0.89411374
0.8968934
0.90424171
0.9174315
0.9080989
0.89574607
0.88905084
0.88655571
0.88655428
0.88904665
0.8957396
0.90809077
0.90049227
0.88903193
0.88297575
0.88072622
0.88072485
0.88297172
0.88902568
0.90048425
0.89406342
0.88347951
0.87804886
0.87601627
0.87601497
0.878045
0.88347349
0.89405555
0.88845693
0.87871765
0.873889
0.87205105
0.87204981
0.87388531
0.87871189
0.88844925
0.88355494
0.87459159
0.87033769
0.86867848
0.8686773
0.87033418
0.87458609
0.88354747
0.87932379
0.87092266
0.86724807
0.8657589
0.86575778
0.86724474
0.87091743
0.87931658
0.83995997
0.83927259
0.83883521
0.83834121
0.83833956
0.83883039
0.83926518
0.83995086
0.84098536
0.84041652
0.83996341
0.83947014
0.83946855
0.83995875
0.84040931
0.8409763
0.84213393
0.84173814
0.84127247
0.84077565
0.84077412
0.84126797
0.84173116
0.84212496
0.84330461
0.84305798
0.84257599
0.84207609
0.84207463
0.84257167
0.84305125
0.84329577
0.84448841
0.84432715
0.84382589
0.84332731
0.84332591
0.84382176
0.8443207
0.84447974
0.84563591
0.84549123
0.84497252
0.84448182
0.84448049
0.8449686
0.84548507
0.84562746
0.84669329
0.84650895
0.8459783
0.84550208
0.84550081
0.84597457
0.84650309
0.84668509
0.84755361
0.84731305
0.84677653
0.84631712
0.84631592
0.84677302
0.8473075
0.84754573
0.84210401
0.84080894
0.84002182
0.83964262
0.83964066
0.84001594
0.84079991
0.84209294
0.84240354
0.84112355
0.84039467
0.84002859
0.8400267
0.84038897
0.84111476
0.84239252
0.84269569
0.84144704
0.84078044
0.8404256
0.84042378
0.84077494
0.84143852
0.84268474
0.84282701
0.84162441
0.84102665
0.84068818
0.84068644
0.84102134
0.84161618
0.84281616
0.8428353
0.84169993
0.84117305
0.84085551
0.84085384
0.84116797
0.841692
0.8428246
0.84278225
0.84172655
0.84126894
0.84097628
0.8409747
0.84126408
0.84171897
0.84277174
0.84266979
0.84170393
0.84131967
0.84105807
0.84105657
0.84131505
0.84169671
0.84265954
0.84233965
0.84155665
0.84126857
0.84104846
0.84104704
0.84126421
0.84154981
0.84232976
0.83172279
0.83149607
0.83153474
0.83162674
0.83162426
0.8315272
0.83148461
0.83170896
0.83191747
0.83174053
0.83178769
0.8318592
0.8318568
0.83178039
0.83172938
0.83190368
0.83211715
0.83198565
0.83204595
0.83209969
0.83209738
0.83203888
0.83197482
0.83210342
0.8323002
0.83220568
0.83228258
0.83232413
0.83232191
0.83227577
0.8321952
0.83228656
0.83247256
0.83241255
0.83250835
0.83254212
0.83254
0.8325018
0.83240244
0.83245906
0.83264587
0.83261738
0.8327324
0.83276182
0.8327598
0.83272614
0.83260766
0.83263256
0.83281742
0.83282537
0.83295949
0.83298862
0.8329867
0.83295352
0.83281609
0.83280437
0.8329225
0.83304961
0.83320125
0.83323668
0.83323487
0.8331956
0.83304078
0.83290986
0.82620478
0.82603449
0.82614135
0.82633813
0.82633478
0.82613116
0.82601929
0.82618678
0.82630604
0.8261734
0.82629125
0.82646614
0.8264629
0.82628138
0.82615859
0.82628807
0.82641571
0.82631811
0.82644912
0.82660466
0.82660154
0.82643958
0.82630373
0.82639779
0.8265081
0.82643993
0.82658777
0.82673011
0.82672712
0.82657856
0.82642598
0.82649027
0.82658604
0.8265449
0.82671317
0.82684736
0.8268445
0.8267043
0.82653141
0.82656836
0.82665645
0.82663984
0.82683156
0.82696161
0.82695888
0.82682307
0.82662684
0.82663897
0.82671477
0.82673085
0.82694929
0.82707941
0.82707681
0.82694118
0.82671838
0.82669758
0.82673014
0.8268539
0.82709895
0.82723454
0.82723207
0.82709126
0.82684197
0.82671344
0.82092235
0.82084847
0.82101643
0.82124953
0.82124489
0.82100246
0.82082808
0.82089869
0.82098632
0.82094663
0.82112177
0.82133308
0.8213286
0.82110823
0.82092673
0.82096267
0.82105618
0.8210482
0.82123181
0.82142381
0.8214195
0.82121871
0.82102884
0.82103257
0.82112003
0.82113742
0.82133126
0.82150909
0.82150494
0.8213186
0.82111861
0.82109651
0.82117941
0.82121769
0.82142383
0.82159172
0.82158775
0.82141164
0.82119946
0.82115605
0.82123767
0.82129229
0.82151283
0.82167416
0.82167038
0.82150113
0.82127467
0.82121454
0.82129172
0.82136528
0.82160232
0.82176067
0.82175706
0.82159113
0.82134831
0.82126893
0.82132312
0.82146347
0.82171643
0.82187631
0.82187288
0.82170578
0.82144718
0.8213009
0.81624639
0.81619224
0.81633399
0.81653793
0.81653139
0.81631456
0.8161645
0.81621484
0.81628621
0.81625843
0.81640707
0.81659359
0.81658728
0.81638822
0.8162313
0.81625464
0.81633032
0.81632724
0.81648332
0.8166543
0.81664823
0.81646508
0.81630078
0.81629878
0.81637067
0.81638777
0.81655228
0.81671166
0.81670583
0.81653465
0.81636201
0.81633922
0.81640834
0.81644243
0.81661674
0.8167678
0.81676221
0.81659974
0.81641741
0.81637705
0.81644587
0.8164938
0.81667935
0.81682471
0.81681937
0.816663
0.81646957
0.81641484
0.81648192
0.81654526
0.81674322
0.81688556
0.81688046
0.81672756
0.81652187
0.81645129
0.81650471
0.81661472
0.81682411
0.81696667
0.81696182
0.81680918
0.81659219
0.8164748
0.81186313
0.81182318
0.81192685
0.81208426
0.81207496
0.81189949
0.81178498
0.81182068
0.81188902
0.81186892
0.81197898
0.81212376
0.81211478
0.81195243
0.81183147
0.8118465
0.81191806
0.81191667
0.81203329
0.81216675
0.8121581
0.81200756
0.81188004
0.81187551
0.81194503
0.81195886
0.8120823
0.81220721
0.81219889
0.8120574
0.81192311
0.81190255
0.81197055
0.81199696
0.81212787
0.81224654
0.81223856
0.81210384
0.81196217
0.81192822
0.81199624
0.81203268
0.81217182
0.81228619
0.81227856
0.8121487
0.81199892
0.81195419
0.81202123
0.81206834
0.81221624
0.81232827
0.81232098
0.81219408
0.81203569
0.81197967
0.81203685
0.81211523
0.81227086
0.81238279
0.81237585
0.81224971
0.81208375
0.81199619
0.80768185
0.80764893
0.80771184
0.80781989
0.80780658
0.80767309
0.80759605
0.8076246
0.80769929
0.80768084
0.80774971
0.80784951
0.80783665
0.80771204
0.80762879
0.80764183
0.80771899
0.80771422
0.80778907
0.80788149
0.80786909
0.80775249
0.80766313
0.80766139
0.80773736
0.8077436
0.80782429
0.80791115
0.80789921
0.80778884
0.8076936
0.80767973
0.80775473
0.80776988
0.80785661
0.8079395
0.80792804
0.80782238
0.80772109
0.80769721
0.80777221
0.80779419
0.80788736
0.80796762
0.80795665
0.8078544
0.80774675
0.80771497
0.80778924
0.80781817
0.80791792
0.80799693
0.80798646
0.80788632
0.80777224
0.80773257
0.80779945
0.80784929
0.80795452
0.80803377
0.8080238
0.80792436
0.80780497
0.80774393
0.80364432
0.80361676
0.80364464
0.80370794
0.80368845
0.80358807
0.80354154
0.80356534
0.80365681
0.80363956
0.80367276
0.80373128
0.80371243
0.80361758
0.80356508
0.80357725
0.80367093
0.80366341
0.80370187
0.80375621
0.80373799
0.80364815
0.80358999
0.80359089
0.80368399
0.80368407
0.80372754
0.80377885
0.80376129
0.80367541
0.80361202
0.80360368
0.80369616
0.80370208
0.80375061
0.80379992
0.80378307
0.80370024
0.80363167
0.80361583
0.80370821
0.80371821
0.80377201
0.80382027
0.80380415
0.80372358
0.80364973
0.80362814
0.80371971
0.80373366
0.80379276
0.80384091
0.80382554
0.80374643
0.80366743
0.80364036
0.80372595
0.80375379
0.80381719
0.80386615
0.80385156
0.80377312
0.80369002
0.80364825
0.79971863
0.79969606
0.79969622
0.79972095
0.79969259
0.79961384
0.79960093
0.79960901
0.79972859
0.79971309
0.79971753
0.79973999
0.79971245
0.7996365
0.79960665
0.79961832
0.79973966
0.79973069
0.79973948
0.7997601
0.79973343
0.7996603
0.79962565
0.79962802
0.79974957
0.79974545
0.7997584
0.79977794
0.7997522
0.79968147
0.79964202
0.79963703
0.79975849
0.79975769
0.7997749
0.79979406
0.79976933
0.79970057
0.79965642
0.79964557
0.79976697
0.79976793
0.79978967
0.79980912
0.79978547
0.79971826
0.79966939
0.79965419
0.79977463
0.79977714
0.79980348
0.79982389
0.79980138
0.79973532
0.7996819
0.79966273
0.79977789
0.79978954
0.79981967
0.79984159
0.79982024
0.79975502
0.79969794
0.79966829
0.79591122
0.79588297
0.79585497
0.79584116
0.79579683
0.79572108
0.79593102
0.79573297
0.7959207
0.79589606
0.79587127
0.79585695
0.79581369
0.79573352
0.79573737
0.79575002
0.79593099
0.7959092
0.79588797
0.79587347
0.79583161
0.79575578
0.7957516
0.79575579
0.79593892
0.79591925
0.7959018
0.79588779
0.79584749
0.79577636
0.79576392
0.79576109
0.7959448
0.7959265
0.79591318
0.79590031
0.79586177
0.79579422
0.79577442
0.79576658
0.79594936
0.79593136
0.79592261
0.79591155
0.79587493
0.79581007
0.79578363
0.79577224
0.79595217
0.79593458
0.79593076
0.7959221
0.79588752
0.79582483
0.79579238
0.79577783
0.79594997
0.79593973
0.79594035
0.79593459
0.79590213
0.79584125
0.79580382
0.79578129
0.79229666
0.79216206
0.79210271
0.79205208
0.7919953
0.79241888
0.7922469
0.79192041
0.79224175
0.79216919
0.79211519
0.79206503
0.79200218
0.79190869
0.79194637
0.79194916
0.79224455
0.79217784
0.79212784
0.79207859
0.79201681
0.79193626
0.79195629
0.79195189
0.79224416
0.79218367
0.79213771
0.79209021
0.79203075
0.79195702
0.79196408
0.79195466
0.79224247
0.7921866
0.79214505
0.79210004
0.79204329
0.79197473
0.7919714
0.79195831
0.79223969
0.7921868
0.79215021
0.79210844
0.79205469
0.79199024
0.79197802
0.79196225
0.79223543
0.79218483
0.79215375
0.79211591
0.79206543
0.79200416
0.79198426
0.79196609
0.79222788
0.79218431
0.79215835
0.79212485
0.79207777
0.79201913
0.79199273
0.79196847
0.78940016
0.7887125
0.78846085
0.78834643
0.78825867
0.79291583
0.78835463
0.7885755
0.78910153
0.78859432
0.78846647
0.78835343
0.78819866
0.78829487
0.78823502
0.78822153
0.78898427
0.78858474
0.78847452
0.78836408
0.78823925
0.78830374
0.78823021
0.78822535
0.78892875
0.78857912
0.78848003
0.78837495
0.78826257
0.78831081
0.78823622
0.78822502
0.78887601
0.78857261
0.78848268
0.78838398
0.78828159
0.78831283
0.78824548
0.78822632
0.78882363
0.78856445
0.78848255
0.78839098
0.78829866
0.78831285
0.78825284
0.78822842
0.7887751
0.78855419
0.78847993
0.78839641
0.78831382
0.78831278
0.78825841
0.78823057
0.7887325
0.78854324
0.78847718
0.78840256
0.78832884
0.78831464
0.7882651
0.78823166
0.78694
0.78534864
0.78486865
0.78484963
0.78516739
0.79011951
0.78447858
0.78503117
0.78602183
0.78513906
0.78486621
0.78472078
0.78448208
0.78460032
0.78455817
0.78454567
0.78583531
0.78509251
0.78486786
0.7847281
0.78454523
0.78460654
0.78454132
0.78455112
0.78568281
0.7850593
0.78486732
0.7847352
0.78458085
0.78461221
0.78454633
0.78454765
0.7855461
0.78503164
0.78486418
0.78474093
0.78460973
0.78461498
0.78455462
0.78454527
0.78542525
0.78500564
0.78485861
0.78474477
0.7846343
0.78461721
0.78456157
0.78454381
0.78532194
0.78497951
0.78485067
0.78474698
0.78465424
0.78461996
0.78456726
0.78454286
0.7852427
0.7849534
0.78484284
0.78475029
0.78467207
0.78462469
0.78457427
0.7845423
0.78558746
0.78129517
0.78117477
0.78155117
0.80646971
0.7839712
0.78078262
0.78103506
0.78252528
0.7812491
0.78120344
0.7810829
0.78127201
0.78092391
0.7809806
0.78090347
0.78227401
0.78125825
0.78121512
0.78109515
0.78132174
0.7808685
0.78090476
0.78091003
0.78200022
0.78126328
0.78122463
0.78111166
0.78133816
0.78089184
0.78090795
0.78090371
0.78184824
0.78126759
0.78123072
0.78112395
0.78133063
0.78091939
0.78091622
0.78089828
0.78172601
0.78126825
0.78123256
0.78113247
0.78131465
0.78094476
0.78092556
0.78089581
0.78162125
0.78126526
0.78123006
0.78113868
0.78129486
0.78096739
0.78093454
0.78089531
0.78154457
0.78126206
0.78122601
0.78114652
0.78127236
0.78098978
0.78094429
0.78089789
0.78961521
0.77767219
0.77744949
0.77785724
0.81025012
0.77991372
0.77718829
0.77741822
0.77833525
0.77729655
0.77747086
0.77752781
0.77793482
0.7773803
0.77734903
0.77741297
0.77921037
0.77746763
0.7775131
0.77752371
0.77797937
0.77726542
0.77730506
0.77740533
0.77842848
0.7775073
0.77754369
0.77754374
0.77798802
0.77728567
0.77730832
0.77739868
0.77831828
0.77752589
0.77756711
0.77755741
0.7779704
0.77732418
0.77731708
0.77738674
0.77816372
0.7775227
0.77758466
0.77756679
0.77794122
0.77735979
0.77732926
0.7773732
0.77803131
0.77752216
0.77759625
0.77757418
0.77790691
0.77739202
0.77734148
0.77736008
0.7779145
0.77752528
0.77760496
0.77758463
0.77786854
0.77742478
0.77735452
0.77735099
0.77877888
0.77429887
0.77387787
0.77406389
0.79202905
0.77763738
0.7749373
0.77684822
0.77823511
0.77407249
0.77388978
0.77407477
0.7754472
0.773539
0.77345967
0.77368561
0.77521129
0.7738957
0.77392169
0.77407812
0.77500931
0.77349154
0.77352751
0.77373186
0.77499101
0.77390087
0.77396146
0.77409716
0.77496883
0.77357781
0.77355294
0.77374365
0.77466883
0.77388801
0.77399666
0.77410942
0.77490407
0.77365791
0.77358316
0.7737581
0.77448452
0.77387369
0.77402463
0.77411824
0.77482718
0.77373375
0.77361829
0.77376802
0.7743383
0.77386147
0.77404532
0.77412517
0.77474579
0.77380471
0.7736556
0.77376955
0.77421435
0.77385178
0.77406058
0.77413409
0.77466125
0.77387645
0.7736986
0.77377129
0.7781282
0.7712241
0.77027181
0.77051178
0.77519847
0.77375201
0.7787501
0.80171043
0.77999266
0.77062692
0.77026299
0.77062505
0.77450519
0.7696749
0.7695318
0.77246449
0.77151993
0.77006506
0.77029464
0.77067058
0.77263479
0.7697346
0.76982653
0.77191098
0.77044146
0.77010478
0.77036719
0.77070581
0.7724715
0.7699217
0.76991901
0.77161835
0.7703399
0.7701503
0.77043728
0.77074128
0.7722612
0.77010037
0.76994782
0.77142457
0.77031669
0.77019167
0.77049862
0.77077068
0.77205115
0.77024765
0.76998431
0.77124718
0.77031945
0.7702338
0.77055046
0.77079492
0.77185742
0.77037139
0.77003094
0.77107272
0.77035579
0.77028205
0.77059595
0.77081787
0.77167624
0.77048902
0.77008565
0.77090377
0.76983994
0.7681753
0.76718863
0.76769218
0.77056964
0.76887567
0.77221223
0.78464894
0.76925077
0.76782565
0.76719202
0.76769512
0.77239953
0.76637561
0.76587357
0.7654561
0.76805284
0.76767391
0.76721498
0.76777283
0.7691899
0.7667324
0.7658794
0.76947374
0.76730034
0.76760214
0.76725935
0.7678234
0.76839156
0.76643363
0.76607666
0.76891061
0.76736655
0.76757245
0.76730984
0.76786731
0.76834457
0.76667847
0.76618358
0.76851216
0.76739341
0.7675498
0.76735738
0.7678926
0.76831045
0.76687405
0.76628263
0.76819987
0.76741092
0.76752935
0.76740619
0.76790685
0.76826049
0.76703567
0.76638341
0.76791953
0.76742064
0.7675143
0.76745167
0.76791529
0.76818116
0.76719189
0.76649245
0.76765375
0.76567621
0.76455458
0.76393684
0.76544114
0.7877277
0.76323412
0.77132177
0.76563241
0.76461075
0.76453924
0.76388001
0.76539075
0.78802705
0.76356795
0.7656457
0.76558581
0.76428959
0.76448941
0.76386745
0.76562099
0.78802579
0.76403604
0.76314086
0.76575511
0.76418577
0.76445449
0.76393372
0.76587886
0.76660841
0.76456347
0.76337948
0.76527195
0.76414657
0.76443061
0.76402297
0.76590661
0.76600728
0.76445362
0.76340969
0.76488805
0.76413224
0.76441451
0.76411271
0.76589246
0.76563273
0.76454884
0.76344091
0.76457571
0.76412927
0.76440301
0.76420801
0.76584438
0.76539217
0.76459339
0.76348525
0.76429004
0.76414344
0.76440667
0.76432036
0.76576975
0.76527251
0.76460777
0.76350954
0.76404143
0.76248884
0.76123603
0.76028455
0.76399476
0.75704093
0.7622652
0.76942116
0.75801693
0.76092243
0.76124827
0.76023414
0.76396974
0.74341375
0.76356991
0.7599427
0.76598104
0.76079489
0.76115077
0.76027948
0.76381248
0.77641867
0.75953245
0.75855825
0.76102446
0.76068338
0.76113081
0.76054113
0.76427914
0.77174387
0.76058591
0.75874503
0.75988113
0.76060506
0.76114513
0.76085235
0.76432893
0.76799607
0.76071323
0.75904531
0.75977787
0.76056691
0.76118014
0.76114415
0.76424916
0.7665865
0.7606313
0.75928427
0.75969226
0.76056653
0.7612295
0.76140592
0.76421523
0.76585663
0.76102058
0.75952291
0.75960034
0.76061824
0.76130482
0.76165336
0.76418714
0.76515727
0.76134514
0.7597545
0.75954879
0.75646101
0.75771426
0.7564556
0.76423106
0.77346927
0.7587928
0.75394062
0.73976283
0.75631813
0.75760255
0.75645575
0.76484216
0.77373724
0.75817606
0.75547569
0.73085438
0.75632077
0.75757789
0.75650595
0.76552775
0.7716147
0.75827804
0.75751957
0.76628142
0.7562879
0.75762035
0.75666691
0.76651513
0.78809983
0.7583712
0.75657103
0.7632385
0.75629186
0.75771112
0.75713857
0.76750787
0.75059804
0.75860727
0.75621261
0.7572502
0.75633452
0.75784197
0.75775208
0.76753619
0.75290797
0.75831456
0.75628802
0.75682741
0.75642252
0.75800929
0.75834121
0.76676372
0.75449773
0.75820399
0.75627519
0.75659724
0.75660285
0.75822096
0.75897544
0.76576883
0.75596545
0.75816822
0.75632779
0.75639734
0.7549396
0.7524961
0.75266474
0.77826987
0.76226941
0.75363044
0.75548594
0.76339424
0.75404337
0.75233356
0.75689559
0.7721855
0.77143444
0.75375795
0.7519869
0.745736
0.75250376
0.75249457
0.75188123
0.80691209
0.75626773
0.75394854
0.75126834
0.76149169
0.75217842
0.75252937
0.75266279
0.78242631
0.75690007
0.7542634
0.751306
0.75935736
0.75199288
0.75279016
0.75618765
0.88595523
0.76285371
0.75484206
0.75191899
0.7545612
0.75197409
0.75344136
0.7587784
0.76152772
0.76523974
0.75564627
0.75277602
0.75263106
0.75208718
0.7540921
0.75888044
0.7695948
0.76477389
0.75629272
0.75295454
0.75248425
0.75235359
0.75483911
0.76016889
0.76924808
0.76445768
0.75689721
0.75319394
0.75240824
0.74797221
0.74561435
0.72668943
0.77460669
0.73608209
0.74656233
0.75133649
0.77277768
0.74710091
0.74338783
0.72570922
0.77308919
0.7346098
0.74571281
0.74738637
0.75127617
0.74463903
0.74249316
0.73053986
0.90214821
0.74965262
0.7456664
0.74721553
0.7501015
0.74451009
0.74527688
0.75245177
0.88231619
0.7430253
0.7469283
0.74563621
0.75526757
0.74474943
0.74708641
0.79338416
1.3040383
0.87737371
0.75056623
0.74577434
0.75231512
0.7451206
0.74786052
0.78099885
1.0689106
0.77206597
0.75300129
0.74695236
0.74839958
0.74562894
0.74822572
0.75742907
1.3016812
0.77439432
0.75294411
0.74818672
0.74774384
0.74655802
0.75135308
0.768169
0.80119353
0.7766536
0.75448307
0.74911484
0.74769589
0.74316044
0.73721944
0.71039142
0.96978755
0.747071
0.74245116
0.74727752
0.76910587
0.7431785
0.73688688
0.72196746
0.96392509
0.75195111
0.74300276
0.74452541
0.74832284
0.74163018
0.73659993
0.73207961
0.96337414
0.75797841
0.74400306
0.74439315
0.75082512
0.74119392
0.736584
0.7375663
0.96160995
0.75740389
0.7454652
0.74350889
0.75222368
0.7409872
0.73756748
0.78964386
1.0014943
0.79681106
0.74729178
0.74408294
0.7448467
0.74096399
0.73607112
0.73322762
0.96053005
0.75459489
0.74630456
0.74504153
0.74161494
0.74081971
0.73268864
0.75535344
0.98392926
0.76159604
0.74371272
0.74576852
0.74123195
0.74107727
0.73551297
0.7667289
0.96052455
0.76892244
0.74453506
0.74620721
0.74148355
0.74015878
0.72911477
0.75181445
0.97618738
0.75960037
0.7438204
0.73820275
0.74115304
0.73931391
0.72674558
0.76095707
0.97702892
0.76209117
0.74324479
0.7374667
0.72870953
0.73849697
0.72777241
0.76407363
0.97887681
0.76413829
0.74533446
0.73788427
0.747323
0.7378717
0.7288599
0.77165435
0.9809346
0.76611202
0.74729879
0.73676252
0.7418983
0.73736574
0.72997864
0.77726001
0.98514733
0.76874554
0.74891748
0.73732743
0.73009513
0.73702942
0.73148302
0.77990093
0.99016077
0.77050336
0.75069169
0.7389559
0.72922615
0.73703249
0.73308768
0.77312604
0.99104798
0.77012513
0.75257556
0.74075018
0.72982221
0.73757247
0.73532009
0.77093822
0.9915249
0.76928496
0.75449368
0.74279589
0.73122976
0.73695294
0.73137397
0.73867282
0.91458968
0.80460137
0.74168399
0.72054176
0.69646884
0.73670874
0.7281013
0.73340164
0.8889454
0.80059266
0.74452345
0.72500204
0.69250889
0.73621988
0.72855271
0.73298471
0.94122819
0.80411624
0.74824034
0.72480726
0.72968929
0.73573939
0.72859482
0.7422529
0.90832065
0.80731354
0.75254792
0.72606645
0.72313114
0.73517954
0.72813283
0.74125531
0.90627
0.81016259
0.75174399
0.72725895
0.71647221
0.73445067
0.72716775
0.73549142
0.92576446
0.81099181
0.75222294
0.7272806
0.71631031
0.733697
0.72683746
0.73952535
0.99500846
0.82221778
0.75499621
0.72901814
0.71679072
0.73329452
0.72794349
0.74684702
0.8879655
0.82972065
0.77370746
0.73305525
0.71830146
0.73988012
0.73938114
0.78497341
0.85172344
0.82163865
0.68684759
0.65203296
0.66669548
0.74044206
0.73481538
0.78435992
0.85904996
0.80010402
0.70703053
0.65836804
0.66369915
0.74070946
0.73641911
0.77706615
0.85664968
0.79642944
0.70336814
0.6623939
0.68441595
0.74062346
0.73932297
0.78798541
0.84279732
0.79623675
0.71558878
0.66662319
0.68124259
0.7403466
0.74107526
0.79161687
0.83506693
0.78502594
0.74103508
0.69761377
0.65705966
0.73925497
0.74130268
0.7852266
0.83202316
0.78454457
0.75033057
0.74412698
0.66007063
0.73730363
0.73919244
0.77251962
0.82900349
0.81207999
0.7552312
0.70088438
0.66762391
0.73529807
0.73818647
0.78453989
0.82496905
0.82166386
0.74930907
0.68589756
0.67128729
0.71799596
0.79470157
0.71546853
0.84485053
1.2142432
0.55187805
0.63018227
0.59586374
0.72201095
0.7926476
0.70921294
0.82770211
1.2598934
0.52094614
0.61712459
0.59352561
0.72314506
0.78770775
0.70180975
0.83014049
1.196202
0.52653826
0.6216475
0.61705564
0.72312593
0.78239561
0.69551511
0.82329995
1.1625909
0.52218867
0.60410737
0.59810993
0.72411945
0.79229638
0.69380475
0.76247752
1.1667341
0.49564518
0.70419778
0.59831458
0.72255569
0.73940467
0.70634332
0.76605741
1.0231354
0.49712307
0.60264861
0.60442472
0.71869631
0.74590247
0.72379315
0.76374954
0.69401679
0.48843609
0.60957547
0.60505998
0.71686355
0.75079196
0.73590901
0.75209963
0.80387735
0.48896065
0.60946696
0.60684528
0.75434915
0.78128596
1.3141727
3.7492306
18.771576
0.046277346
0.52374772
0.55435376
0.75515456
0.81858386
1.4286098
4.2622924
19.348956
0.087406179
0.47679442
0.5466529
0.75867681
0.84920406
1.5530154
3.6820315
17.591277
0.25533498
0.46848797
0.54806014
0.76489016
0.64000568
1.4501412
3.895615
17.276911
0.39663813
0.47768408
0.53957385
0.75689765
0.67522801
0.93980965
4.287813
14.267786
0.50579986
0.48302617
0.53614914
0.74502804
0.68119163
0.98405968
1.757454
12.276876
0.51258879
0.50569244
0.53309399
0.73215952
0.6670614
0.68743223
1.7677238
15.276942
0.52475063
0.48628999
0.53178223
0.71787451
0.68237459
0.68206329
1.5229125
23.447844
0.7787852
0.50022788
0.53373692
1.0880596
-0.15091273
7.9705784
57.995103
59.312187
12.697983
-0.15755625
0.56818228
1.0414247
-0.38005279
10.444215
56.49149
58.931828
15.409944
-0.38911775
0.48495291
0.94685424
-0.1317931
10.26132
55.602681
58.533214
14.077286
0.14866623
0.39697757
1.1803937
0.072848006
12.590546
48.667236
57.938784
12.327286
0.51811879
0.3200722
0.65705709
0.48535988
13.748394
39.464975
57.660967
8.0244716
0.6713253
0.32514654
0.59781209
0.94859796
11.291454
39.581001
57.578019
2.5056224
0.75419799
0.32587609
0.39383528
1.2204829
11.121206
41.914093
57.874446
3.9158765
0.91156202
0.34046347
0.4309715
1.4112554
6.7922135
13.126463
46.925061
7.6210626
1.4118851
0.39677773
0.89995069
0.86101782
6.367792
64.447953
59.850115
17.496553
-0.86905953
0.66913353
0.91607159
0.74028365
8.767931
63.406713
59.834783
20.556068
-1.1489053
0.54146538
0.89241651
1.1053111
7.135417
61.258283
60.115546
20.234071
-0.44812507
0.41458416
0.81676607
1.3647283
3.4214734
54.961643
60.277147
21.977122
0.14796211
0.2872287
0.99299498
1.5327536
3.376666
54.333233
61.458559
18.702626
0.65127894
0.15511537
0.97533635
1.7660299
2.6883047
36.50021
61.058265
15.202177
0.99697211
0.025321575
0.98730522
2.0881807
1.9748249
31.498298
63.57081
11.381469
1.1300227
0.0019771546
1.2419202
2.4814694
0.94526819
15.232467
60.675986
10.561721
1.381745
0.1044601
0.86736108
0.5492185
2.0222457
5.6722326
12.983742
0.34234487
0.17222112
0.69124787
0.79552649
0.5893433
1.3291515
4.9841899
12.392696
0.30845484
0.13885835
0.67330915
0.8077593
0.43317222
2.0251237
7.045042
12.865187
0.39692675
0.10918745
0.65465423
0.74183435
0.36474044
2.6460346
5.7861633
10.722657
0.48859471
0.093316343
0.62714405
0.69738117
0.58945907
8.0714685
5.7723474
8.7813176
0.57403573
0.026153565
0.57613087
0.75706768
1.0344966
1.782923
1.6967504
6.5306735
0.59402202
0.0092163351
0.50616614
0.79757233
1.2972428
0.19998944
1.2051848
4.3141839
0.51415359
0.039804618
0.42808253
0.77964876
0.88400237
0.35797407
0.5006006
4.8268912
0.33006527
0.0852495
0.37135995
0.65908933
0.71686846
0.64899927
0.74866781
0.57938378
0.53634286
0.53420174
0.60921511
0.66195293
0.69099634
0.68132184
0.75599534
0.5976123
0.52652903
0.51614871
0.60101301
0.67212491
0.67649621
0.56523733
0.72249218
0.53914723
0.51154518
0.51128855
0.59822863
0.65279611
0.7512434
0.90366696
0.71637629
0.54360744
0.50260514
0.51035952
0.59564891
0.70132238
0.75788646
0.64838383
0.69692526
0.52543918
0.49386176
0.51226771
0.59665185
0.65657916
0.75417952
0.65124119
0.67981659
0.49813089
0.48414269
0.51089479
0.58638658
0.64239324
0.94358845
0.5319729
0.68761309
0.53782728
0.47901921
0.50556343
0.58332696
0.65670314
0.80540425
0.4341751
0.58610492
0.59888149
0.48334122
0.49664915
0.5726657
0.68289038
0.54436228
0.98278857
0.98427236
0.71895829
0.57849487
0.68842705
0.60967345
0.67996607
0.5532779
0.90439278
0.83109593
0.69183311
0.5775596
0.55547784
0.62271824
0.67914833
0.52855695
1.0870494
0.76567969
0.70628696
0.55799467
0.55654841
0.61358563
0.6687156
0.55484411
1.0766933
0.74966593
0.68847447
0.5860651
0.55503799
0.61202639
0.67946597
0.58547678
1.4768382
0.72742487
0.66927209
0.57138706
0.55204911
0.60567925
0.66071163
0.59320175
1.3196757
0.87112531
0.68505341
0.59975235
0.5530352
0.60585067
0.64868185
0.58542809
1.3987064
0.93229542
0.70297859
0.59664043
0.54957372
0.59910966
0.63185347
0.62902621
1.9991689
0.97424223
0.72342547
0.59564031
0.54758758
0.59469838
0.73379487
1.3325467
1.642339
0.2531331
0.66054057
0.63542663
0.61186446
0.60375614
1.0167946
1.2851826
0.89586664
0.065275098
0.65239088
0.58821323
0.60881097
0.60055869
0.56713229
0.87155293
1.0900231
1.4891937
0.64534555
0.60812665
0.59477121
0.60788418
0.59924333
0.61284876
1.06823
0.87257403
0.72481834
0.58322699
0.5992972
0.60614276
0.60829586
0.6064332
1.0613888
0.87657219
0.74823119
0.60268541
0.59891103
0.60416153
0.60625707
0.58866142
1.0808869
0.70830465
0.73145219
0.63132359
0.5942868
0.60387538
0.60434812
0.6156308
1.1049893
0.7428825
0.68738209
0.66520125
0.5923969
0.60306073
0.6091351
0.64421572
1.0701396
0.71472829
0.68899884
0.61794823
0.59190073
0.60099375
0.57613243
0.53446498
1.4824509
0.46127029
0.64219511
0.61409863
0.64430473
0.60081295
0.59107058
0.61519814
0.91067541
0.16926267
0.63367525
0.62820459
0.75644283
0.58763989
0.55704068
0.51539126
1.1985348
1.511466
0.63447762
0.59774874
0.55581817
0.59462556
0.55256489
0.55116862
1.1803561
1.0010545
0.66590724
0.62175653
0.56924822
0.594048
0.55425615
0.57132722
1.1582874
0.88053022
0.72677341
0.65768171
0.57713182
0.59016167
0.55828966
0.57042749
1.1304408
0.79064354
0.67028466
0.67676016
0.57921346
0.58721397
0.56444093
0.59512666
1.1068136
0.74249031
0.61511522
0.77851659
0.57950627
0.58535734
0.57227351
0.60438976
1.0703859
0.69072475
0.62161835
0.7608745
0.59545004
0.58607677
0.56187967
0.49012486
0.8338955
0.2280569
0.57333624
0.63909614
0.568477
0.58589944
0.55536093
0.49440441
0.7981305
0.22039809
0.56982598
0.61123192
0.56145052
0.57614184
0.54861856
0.50510738
0.82157345
0.22762282
0.56962536
0.60362584
0.60766662
0.5758922
0.54361685
0.52568122
0.8584679
0.94271895
0.5722359
0.60736587
0.54816992
0.57705821
0.54086393
0.57177049
1.0246469
0.83452467
0.58382774
0.62113049
0.55428534
0.57411266
0.54127823
0.5977921
1.3572397
0.73023049
0.65264802
0.64727115
0.55714267
0.57105858
0.54705251
0.59503352
0.54316672
0.71466607
0.55941006
0.78369385
0.55905966
0.56908278
0.55149794
0.58979974
0.54615288
0.69315306
0.57304951
0.76828315
0.57676429
0.57012365
0.53351
0.57070194
0.64781358
0.54707423
0.557815
0.59906579
0.51976263
0.54602574
0.53549032
0.57380642
0.64415797
0.54645402
0.55542439
0.59581145
0.52063154
0.54458665
0.53724646
0.57664406
0.64217325
0.55182778
0.55410974
0.59732592
0.5294943
0.54358032
0.53842333
0.58057549
0.63261706
0.63906656
0.55125339
0.63532084
0.53448764
0.5428574
0.5402259
0.58236978
0.69580044
0.90842159
0.54624611
0.62267206
0.53139697
0.54146864
0.54234092
0.63083698
1.1103914
0.49640604
0.67937167
0.6394367
0.53591043
0.53918874
0.53875002
0.62539315
0.49952915
0.51084017
0.59748934
0.7724077
0.54020997
0.53688011
0.54097176
0.61021367
0.50682963
0.54389335
0.56605608
0.76155376
0.55705417
0.53916363
0.52793135
0.57916531
0.60781399
0.45887071
0.54882836
0.62897817
0.49009516
0.52107008
0.52593431
0.57928641
0.59494402
0.45926797
0.54300829
0.61648094
0.49570283
0.51790192
0.52597173
0.58512397
0.59035749
0.45930362
0.54740244
0.63112537
0.50363783
0.51428756
0.52577058
0.59007354
0.57207191
0.45865338
0.55416041
0.67055741
0.52318578
0.62258766
0.52659972
0.59579782
0.57034321
0.45039267
0.55267863
0.68840327
0.53294119
0.49860559
0.53168904
0.6039777
0.56763378
0.61091758
0.56892011
0.6862564
0.57320254
0.50635016
0.54423309
0.63225851
0.56233283
0.60889465
0.56309024
0.67643585
0.53933455
0.51515311
0.52765676
0.7043564
0.56560428
0.5444691
0.52030519
0.66234005
0.55394882
0.5216098
0.52220421
0.5308927
0.55370255
0.44031394
0.51454657
0.60710862
0.52404088
0.47085803
0.51941126
0.53194047
0.55229654
0.44027979
0.5088027
0.59349062
0.52772876
0.47022231
0.51770531
0.53493487
0.55350606
0.43680147
0.51526318
0.60919785
0.53756527
0.46953882
0.5156915
0.53396004
0.54419263
0.43222028
0.51554701
0.64580321
0.57317521
0.58881367
0.51537238
0.53385628
0.55865559
0.42437663
0.51012928
0.65349792
0.6906601
0.45731237
0.51393333
0.53393771
0.54487957
0.63355164
0.50379273
0.66051027
0.67686086
0.475997
0.51653603
0.53610861
0.544926
0.60784773
0.50048898
0.67020541
0.6333785
0.49545846
0.52137803
0.54507064
0.54316937
0.55271441
0.50417598
0.61309531
0.59990541
0.50708715
0.50180123
0.49711408
0.50000463
0.42206489
0.4801206
0.5607572
0.51410205
0.43954163
0.49988453
0.4984809
0.49458697
0.42978852
0.47681666
0.55783213
0.51582275
0.43549582
0.4977545
0.49296917