/*--------------------------------*- C++ -*----------------------------------*\
  =========                 |
  \\      /  F ield         | OpenFOAM: The Open Source CFD Toolbox
   \\    /   O peration     | Website:  https://openfoam.org
    \\  /    A nd           | Version:  13
     \\/     M anipulation  |
\*---------------------------------------------------------------------------*/
FoamFile
{
    format      ascii;
    class       surfaceScalarField;
    location    "0.08";
    object      phi;
}
// * * * * * * * * * * * * * * * * * * * * * * * * * * * * * * * * * * * * * //

dimensions      [0 3 -1 0 0 0 0];

internalField   nonuniform List<scalar> 
150720
(
1.5354269e-11
2.678113e-09
9.0067737e-10
-6.7999376e-17
-1.704332e-11
2.6394502e-09
9.8709199e-10
-1.8284395e-11
2.6435434e-09
9.5184222e-10
1.2950095e-14
2.6448388e-09
9.3100843e-10
1.8309269e-11
2.6448377e-09
9.3101052e-10
1.7063603e-11
2.6435414e-09
9.5184888e-10
-1.5343217e-11
2.6394483e-09
9.871031e-10
2.678111e-09
9.0068951e-10
8.2122625e-16
-4.3749617e-11
4.1656948e-09
2.0162721e-09
-1.0546299e-15
-1.0099695e-10
4.0027801e-09
2.1540206e-09
-6.8822345e-11
3.9922659e-09
2.0792062e-09
2.8878027e-14
3.9982289e-09
2.0378619e-09
6.8877139e-11
3.9982263e-09
2.0378664e-09
1.0104195e-10
3.9922595e-09
2.0792203e-09
4.3777556e-11
4.002771e-09
2.154045e-09
4.1656869e-09
2.0163009e-09
3.9651809e-15
-7.8711974e-11
4.8655317e-09
2.7049396e-09
-2.519314e-15
-1.4525277e-10
4.5672912e-09
2.8280918e-09
-9.4767007e-11
4.5361136e-09
2.7317285e-09
3.8484803e-14
4.547621e-09
2.6818644e-09
9.4840139e-11
4.5476168e-09
2.6818698e-09
1.4531377e-10
4.5361021e-09
2.7317458e-09
7.8750407e-11
4.5672742e-09
2.8281222e-09
4.8655135e-09
2.7049781e-09
7.7348354e-15
-9.4732616e-11
5.0386866e-09
3.1136027e-09
-4.2647825e-15
-1.6013346e-10
4.6315657e-09
3.193147e-09
-1.0347161e-10
4.584385e-09
3.0870874e-09
4.4233065e-14
4.6005249e-09
3.0356009e-09
1.0355589e-10
4.6005193e-09
3.0356065e-09
1.6020492e-10
4.5843688e-09
3.0871048e-09
9.4779577e-11
4.6315416e-09
3.1931785e-09
5.0386564e-09
3.1136455e-09
1.1811706e-14
-9.9488535e-11
4.8757382e-09
3.3204224e-09
-6.1657847e-15
-1.5881815e-10
4.3997651e-09
3.3491095e-09
-1.0283474e-10
4.3446502e-09
3.2417307e-09
4.7617097e-14
4.3630518e-09
3.1925701e-09
1.0292578e-10
4.3630452e-09
3.1925753e-09
1.5889661e-10
4.3446305e-09
3.2417468e-09
9.9542699e-11
4.3997357e-09
3.3491391e-09
4.8756968e-09
3.3204655e-09
1.6063981e-14
-9.5711263e-11
4.5139823e-09
3.3814133e-09
-8.1394604e-15
-1.4812059e-10
4.0120799e-09
3.3640325e-09
-9.6893273e-11
3.9563561e-09
3.2610048e-09
4.9572552e-14
3.9738504e-09
3.2161966e-09
9.69884e-11
3.9738432e-09
3.2162012e-09
1.4820394e-10
3.9563341e-09
3.2610189e-09
9.5771735e-11
4.0120472e-09
3.3640588e-09
4.513932e-09
3.3814542e-09
2.0438388e-14
-8.5406999e-11
4.0504125e-09
3.3388837e-09
-1.0133172e-14
-1.3237994e-10
3.5631423e-09
3.2858073e-09
-8.8009219e-11
3.5111425e-09
3.1907397e-09
5.067066e-14
3.5245466e-09
3.1511406e-09
8.8106865e-11
3.5245391e-09
3.1511446e-09
1.3246697e-10
3.5111192e-09
3.1907516e-09
8.5473228e-11
3.5631082e-09
3.2858295e-09
4.0503564e-09
3.3389207e-09
2.4940593e-14
-6.8644337e-11
3.2358673e-09
-1.1921634e-14
3.5390568e-09
-1.1575127e-10
3.1567978e-09
3.1093069e-09
-7.8353219e-11
3.070803e-09
3.0587969e-09
5.116053e-14
3.0363515e-09
3.0656462e-09
7.8452515e-11
3.036355e-09
3.0656382e-09
1.1584171e-10
3.0708128e-09
3.0587726e-09
6.8715449e-11
3.1568158e-09
3.109274e-09
3.2358997e-09
2.9088099e-14
3.5389984e-09
4.4484076e-11
4.3872357e-10
4.1746986e-10
-1.294462e-16
3.7387891e-11
4.5957005e-10
5.3461813e-10
1.8726263e-11
4.4105092e-10
5.2945293e-10
2.6823055e-14
4.3622738e-10
5.1348049e-10
-1.867542e-11
4.3622595e-10
5.1348682e-10
-3.7346848e-11
4.410468e-10
5.2947351e-10
-4.446249e-11
4.5956771e-10
5.3465103e-10
4.3872462e-10
4.1750121e-10
1.1905865e-15
8.9564897e-11
1.1557164e-09
1.209717e-09
-2.6189775e-15
7.1896438e-11
1.1767783e-09
1.4544809e-09
3.3713919e-11
1.1294579e-09
1.4289817e-09
6.7278739e-14
1.1187705e-09
1.3889655e-09
-3.3586519e-11
1.1187662e-09
1.3889799e-09
-7.1792493e-11
1.1294442e-09
1.4290289e-09
-8.9506907e-11
1.1767672e-09
1.4545599e-09
1.1557112e-09
1.2097994e-09
7.9598674e-15
1.0819114e-10
1.8658232e-09
1.8866483e-09
-6.7099873e-15
8.166715e-11
1.8560386e-09
2.1753554e-09
3.5829095e-11
1.7796869e-09
2.1273376e-09
9.6295331e-14
1.7646382e-09
2.0717294e-09
-3.5646273e-11
1.7646306e-09
2.071748e-09
-8.1515468e-11
1.7796604e-09
2.1273987e-09
-1.0810147e-10
1.8560139e-09
2.1754615e-09
1.8658036e-09
1.8867669e-09
1.7390269e-14
1.1023755e-10
2.447639e-09
2.4215611e-09
-1.1782012e-14
7.7541207e-11
2.3855711e-09
2.6963109e-09
3.1371515e-11
2.2849543e-09
2.6279896e-09
1.1657592e-13
2.2674759e-09
2.5640182e-09
-3.1149453e-11
2.2674651e-09
2.564038e-09
-7.7353972e-11
2.2849146e-09
2.6280552e-09
-1.1012036e-10
2.3855302e-09
2.6964287e-09
2.4475989e-09
2.4217015e-09
2.8328531e-14
1.0293133e-10
2.8531755e-09
2.811972e-09
-1.7403909e-14
6.7417187e-11
2.731448e-09
3.0387466e-09
2.4540584e-11
2.6148519e-09
2.9547097e-09
1.3045041e-13
2.5965191e-09
2.8879369e-09
-2.4291156e-11
2.5965058e-09
2.8879562e-09
-6.7203612e-11
2.6148005e-09
2.9547734e-09
-1.0279017e-10
2.7313911e-09
3.0388648e-09
2.8531121e-09
2.812122e-09
4.0097187e-14
9.1086061e-11
3.0785295e-09
3.0649966e-09
-2.3280921e-14
5.553278e-11
2.9017035e-09
3.2293304e-09
1.7480957e-11
2.7787687e-09
3.1351398e-09
1.3977294e-13
2.7605183e-09
3.0695387e-09
-1.7212549e-11
2.7605031e-09
3.0695563e-09
-5.5299637e-11
2.7787083e-09
3.1351981e-09
-9.0923877e-11
2.9016327e-09
3.2294414e-09
3.0784434e-09
3.0651466e-09
5.2299461e-14
7.74895e-11
3.1455393e-09
3.1944136e-09
-2.9212359e-14
4.3714051e-11
2.9247786e-09
3.2965076e-09
1.1088084e-11
2.8046444e-09
3.19749e-09
1.459176e-13
2.7869301e-09
3.135671e-09
-1.0806349e-11
2.7869135e-09
3.1356865e-09
-4.3466246e-11
2.8045786e-09
3.1975411e-09
-7.7308916e-11
2.9246979e-09
3.296607e-09
3.1454339e-09
3.1945566e-09
6.4719785e-14
6.3912847e-11
3.2100418e-09
-3.4703945e-14
3.1074867e-09
3.2920822e-11
3.2625004e-09
2.850068e-09
5.725911e-12
3.1632802e-09
2.7393621e-09
1.4976366e-13
3.1069654e-09
2.7218923e-09
-5.4327347e-12
3.1069788e-09
2.7218722e-09
-3.266146e-11
3.1633237e-09
2.7392965e-09
-6.3714957e-11
3.2625859e-09
2.8499813e-09
3.2101733e-09
7.6323339e-14
3.107369e-09
3.6631857e-11
9.501244e-11
2.8582548e-10
7.7922192e-17
3.7907877e-11
1.2457881e-10
4.0876329e-10
2.0511035e-11
1.1928595e-10
4.2756383e-10
4.081585e-14
1.1465495e-10
4.1929576e-10
-2.0433677e-11
1.146522e-10
4.1930911e-10
-3.7846869e-11
1.1928038e-10
4.2760632e-10
-3.6601603e-11
1.2457726e-10
4.088285e-10
9.5014683e-11
2.8588386e-10
1.0731915e-15
8.4194266e-11
3.7160312e-10
8.4893549e-10
-3.4140009e-15
8.9041888e-11
4.3892806e-10
1.135284e-09
4.7946086e-11
4.1862025e-10
1.1707432e-09
1.0633689e-13
4.0339126e-10
1.1480689e-09
-4.7744941e-11
4.033834e-10
1.1481e-09
-8.888092e-11
4.1860184e-10
1.1708434e-09
-8.410862e-11
4.3892024e-10
1.1354446e-09
3.7160384e-10
8.4909124e-10
1.0426102e-14
1.1523748e-10
7.6475477e-10
1.378269e-09
-9.7711887e-15
1.2049418e-10
8.5588085e-10
1.7531459e-09
6.4125229e-11
8.1410408e-10
1.7882228e-09
1.5659008e-13
7.8570737e-10
1.753382e-09
-6.3828429e-11
7.8569352e-10
1.7534229e-09
-1.2025231e-10
8.1406798e-10
1.7883565e-09
-1.1510022e-10
8.5586127e-10
1.7533684e-09
7.6474673e-10
1.3784988e-09
2.5026796e-14
1.3194367e-10
1.2000417e-09
1.8543486e-09
-1.8058114e-14
1.3483997e-10
1.2915969e-09
2.2576986e-09
7.0841306e-11
1.224914e-09
2.2811784e-09
1.9401717e-13
1.1835771e-09
2.2367958e-09
-7.0472446e-11
1.1835573e-09
2.2368407e-09
-1.3453414e-10
1.224858e-09
2.2813268e-09
-1.3175916e-10
1.2915601e-09
2.2579549e-09
1.2000165e-09
1.8546297e-09
4.2947936e-14
1.3769927e-10
1.6170473e-09
2.2572946e-09
-2.7495255e-14
1.3665773e-10
1.6863015e-09
2.6450835e-09
7.0837697e-11
1.5941894e-09
2.6512543e-09
2.2114129e-13
1.5418409e-09
2.6002897e-09
-7.0415837e-11
1.541816e-09
2.6003345e-09
-1.3630213e-10
1.5941139e-09
2.6514038e-09
-1.3747215e-10
1.6862437e-09
2.6453512e-09
1.6169977e-09
2.2576058e-09
6.2808792e-14
1.3476987e-10
1.9740417e-09
2.5732698e-09
-3.7500952e-14
1.2948468e-10
2.0032808e-09
2.9176364e-09
6.6293627e-11
1.8875319e-09
2.9049884e-09
2.4027826e-13
1.8270535e-09
2.8503795e-09
-6.5833642e-11
1.8270246e-09
2.8504216e-09
-1.2909076e-10
1.8874393e-09
2.9051298e-09
-1.3450473e-10
2.0032007e-09
2.9178984e-09
1.9739633e-09
2.5735927e-09
8.364629e-14
1.2444199e-10
2.2489533e-09
2.7951077e-09
-4.7671078e-14
1.1600288e-10
2.2247447e-09
3.0834828e-09
5.8883062e-11
2.0890775e-09
3.0530642e-09
2.5337285e-13
2.0239064e-09
2.9974477e-09
-5.8396305e-11
2.023875e-09
2.9974857e-09
-1.1557973e-10
2.0889719e-09
3.053192e-09
-1.2414334e-10
2.2246441e-09
3.0837271e-09
2.2488447e-09
2.795427e-09
1.0484702e-13
1.0909259e-10
2.9237716e-09
-5.7231079e-14
2.4261881e-09
9.9404843e-11
3.1568476e-09
2.3400852e-09
5.0392208e-11
3.1102378e-09
2.1911325e-09
2.617952e-13
3.0558348e-09
2.1251675e-09
-4.9887161e-11
3.0558681e-09
2.1251347e-09
-9.8959942e-11
3.1103492e-09
2.1910192e-09
-1.0876234e-10
3.157066e-09
2.3399664e-09
2.9240755e-09
1.2471826e-13
2.4260555e-09
1.7190036e-11
4.1080434e-11
2.2755423e-10
7.8186844e-16
2.1869981e-11
5.6588642e-11
3.4749471e-10
1.3118996e-11
5.4060217e-11
3.8225459e-10
5.7795777e-14
4.9145391e-11
3.8321157e-10
-1.3010217e-11
4.9142048e-11
3.8323507e-10
-2.1786687e-11
5.4055388e-11
3.823274e-10
-1.7151212e-11
5.6591478e-11
3.4760155e-10
4.1086893e-11
2.2764505e-10
6.970565e-16
4.7843982e-11
1.540058e-10
6.8816966e-10
-3.5219736e-15
6.0226691e-11
2.0180036e-10
9.7768957e-10
3.5861121e-11
1.9277761e-10
1.0563914e-09
1.5287982e-13
1.7689942e-10
1.0560231e-09
-3.5573791e-11
1.7688983e-10
1.0560789e-09
-6.0002364e-11
1.9276046e-10
1.0565669e-09
-4.7730234e-11
2.018057e-10
9.7795825e-10
1.5401858e-10
6.8841701e-10
1.2303483e-14
7.323424e-11
3.3130947e-10
1.1277429e-09
-1.1860477e-14
9.0701333e-11
4.1382454e-10
1.5236546e-09
5.3685537e-11
3.9377337e-10
1.6242428e-09
2.2801878e-13
3.6377258e-10
1.6199663e-09
-5.3255964e-11
3.6375555e-10
1.6200412e-09
-9.0358949e-11
3.9373785e-10
1.6244821e-09
-7.304749e-11
4.1382822e-10
1.5240344e-09
3.3132301e-10
1.1281145e-09
3.2327071e-14
9.3141338e-11
5.5886256e-10
1.5336775e-09
-2.3359337e-14
1.1268889e-10
6.6765605e-10
1.9843195e-09
6.6261064e-11
6.3178718e-10
2.0895924e-09
2.8575998e-13
5.8678959e-10
2.0797541e-09
-6.5720876e-11
5.8676506e-10
2.0798378e-09
-1.1225002e-10
6.3172958e-10
2.0898642e-09
-9.2885278e-11
6.6765145e-10
1.9847669e-09
5.5886839e-10
1.534141e-09
5.8038242e-14
1.0713773e-10
8.1424677e-10
1.8948095e-09
-3.6889306e-14
1.2623464e-10
9.3426213e-10
2.3593805e-09
7.3770914e-11
8.787694e-10
2.4567358e-09
3.2888166e-13
8.1986547e-10
2.4406558e-09
-7.3146866e-11
8.1983422e-10
2.4407411e-09
-1.2571841e-10
8.7868851e-10
2.4570165e-09
-1.0681756e-10
9.3424233e-10
2.3598595e-09
8.1423561e-10
1.8953338e-09
8.725778e-14
1.1496968e-10
1.0719405e-09
2.2006579e-09
-5.152975e-14
1.3181174e-10
1.1856282e-09
2.6494283e-09
7.6715837e-11
1.1084092e-09
2.7304445e-09
3.6011783e-13
1.038284e-09
2.7083166e-09
-7.6029839e-11
1.0382474e-09
2.7083984e-09
-1.3123451e-10
1.1083063e-09
2.7307167e-09
-1.1459135e-10
1.1855879e-09
2.6499097e-09
1.0719042e-09
2.2012144e-09
1.1829556e-13
1.1647912e-10
1.3080689e-09
2.4425668e-09
-6.6593988e-14
1.3041543e-10
1.3978987e-09
2.857276e-09
7.5867094e-11
1.2992572e-09
2.9167645e-09
3.8194665e-13
1.2217744e-09
2.8894425e-09
-7.5136656e-11
1.2217342e-09
2.8895176e-09
-1.2979076e-10
1.2991358e-09
2.9170166e-09
-1.1604909e-10
1.3978358e-09
2.8577375e-09
1.3080016e-09
2.4431305e-09
1.4995659e-13
1.1211693e-10
2.6140963e-09
-8.0924917e-14
1.5057082e-09
1.2373827e-10
2.9884646e-09
1.5546603e-09
7.2248811e-11
3.0229714e-09
1.4380131e-09
3.9623836e-13
2.9918173e-09
1.3576445e-09
-7.1487579e-11
2.9918841e-09
1.357602e-09
-1.230776e-10
3.0231963e-09
1.4378787e-09
-1.1163834e-10
2.9888892e-09
1.5545734e-09
2.6146464e-09
1.7957113e-13
1.5056128e-09
1.0731582e-11
2.1255783e-11
1.955652e-10
1.6678475e-15
1.3914219e-11
3.364369e-11
3.1066838e-10
8.5179931e-12
3.2378007e-11
3.5527281e-10
8.0346716e-14
2.7680476e-11
3.6396874e-10
-8.3683068e-12
2.7676942e-11
3.6400678e-10
-1.3802608e-11
3.2374195e-11
3.5538751e-10
-1.068213e-11
3.3650499e-11
3.1083058e-10
2.126445e-11
1.9569847e-10
2.2613436e-18
2.9238443e-11
8.6623656e-11
5.9356641e-10
-3.0578045e-15
3.894069e-11
1.2288755e-10
8.7874345e-10
2.4291198e-11
1.1738003e-10
9.8603884e-10
2.1348071e-13
1.0212119e-10
1.0056601e-09
-2.3893203e-11
1.0211076e-10
1.0057517e-09
-3.8636904e-11
1.1736512e-10
9.8631972e-10
-2.909021e-11
1.2290514e-10
8.7915692e-10
8.6642492e-11
5.9393399e-10
1.4771912e-14
4.5328108e-11
1.9089617e-10
9.7815536e-10
-1.3050155e-14
6.0508004e-11
2.5375983e-10
1.3776025e-09
3.8073764e-11
2.4075905e-10
1.523298e-09
3.1973038e-13
2.1196097e-10
1.5478806e-09
-3.7475629e-11
2.1194203e-10
1.5480053e-09
-6.0040709e-11
2.4072601e-10
1.5236863e-09
-4.5081196e-11
2.5378608e-10
1.3781939e-09
1.9092087e-10
9.7871338e-10
4.1568234e-14
5.91422e-11
3.2608068e-10
1.3393785e-09
-2.7657819e-14
7.8259319e-11
4.1216385e-10
1.8067984e-09
4.9434957e-11
3.8830654e-10
1.9708693e-09
4.0232557e-13
3.451402e-10
1.9956075e-09
-4.867927e-11
3.451124e-10
1.995749e-09
-7.7656271e-11
3.8825023e-10
1.971317e-09
-5.8799615e-11
4.1219214e-10
1.8075042e-09
3.2610331e-10
1.3400819e-09
7.7012923e-14
7.0548127e-11
4.8231894e-10
1.6680686e-09
-4.5472318e-14
9.194742e-11
5.8380596e-10
2.1663391e-09
5.8166777e-11
5.46005e-10
2.332818e-09
4.647386e-13
4.893512e-10
2.3541468e-09
-5.7290151e-11
4.8931522e-10
2.3542932e-09
-9.1233994e-11
5.4592283e-10
2.3332877e-09
-7.0115614e-11
5.8382778e-10
2.1671054e-09
4.8233004e-10
1.6688735e-09
1.1799478e-13
7.9144866e-11
6.4784603e-10
1.9560512e-09
-6.5265897e-14
1.0130311e-10
7.5399036e-10
2.4570856e-09
6.4164195e-11
6.9994333e-10
2.6136451e-09
5.1041221e-13
6.3211433e-10
2.6292073e-09
-6.3197256e-11
6.320716e-10
2.6293497e-09
-1.0050169e-10
6.9983544e-10
2.6141085e-09
-7.8629933e-11
7.5399767e-10
2.4578681e-09
6.4783629e-10
1.9569163e-09
1.6196198e-13
8.4422206e-11
8.0972276e-10
2.1963539e-09
-8.6051224e-14
1.0636771e-10
9.0811903e-10
2.6812018e-09
6.7530797e-11
8.3711505e-10
2.8184297e-09
5.4254304e-13
7.6156999e-10
2.8269751e-09
-6.6498567e-11
7.6152243e-10
2.8271079e-09
-1.0549735e-10
8.3698411e-10
2.8188667e-09
-8.3833623e-11
9.0810657e-10
2.6819648e-09
8.0968403e-10
2.1972422e-09
2.069886e-13
8.6063612e-11
2.3835427e-09
-1.0625605e-13
9.5431899e-10
1.0754269e-10
2.8426484e-09
1.0324562e-09
6.8544944e-11
2.9528561e-09
9.4622812e-10
5.6361726e-13
2.9541725e-09
8.6719621e-10
-6.7467292e-11
2.9542922e-09
8.6714522e-10
-1.066198e-10
2.9532533e-09
9.4607961e-10
-8.5406404e-11
2.8433639e-09
1.0324184e-09
2.3844221e-09
2.4909547e-13
9.5425277e-10
6.2699602e-12
1.3042772e-11
1.7624973e-10
2.7431277e-15
8.2754609e-12
2.1776906e-11
2.8688598e-10
5.1343275e-12
2.1069399e-11
3.3734455e-10
1.1105205e-13
1.7127529e-11
3.5186449e-10
-4.9300342e-12
1.7124579e-11
3.5192329e-10
-8.127196e-12
2.1067024e-11
3.3751765e-10
-6.2073124e-12
2.178731e-11
2.8712338e-10
1.3052102e-11
1.7643992e-10
-8.5684394e-16
1.7424715e-11
5.2219633e-11
5.3696638e-10
-1.5495444e-15
2.3987351e-11
7.9165077e-11
8.1479265e-10
1.544739e-11
7.6129114e-11
9.3951908e-10
2.9526115e-13
6.3363393e-11
9.7457641e-10
-1.4901917e-11
6.3354157e-11
9.7471935e-10
-2.3580492e-11
7.6118594e-11
9.3994673e-10
-1.7233358e-11
7.9194858e-11
8.1540224e-10
5.2240257e-11
5.3749419e-10
1.8288404e-14
2.7356906e-11
1.1539894e-10
8.8763137e-10
-1.2221102e-14
3.8236334e-11
1.6374222e-10
1.2821459e-09
2.5152207e-11
1.5628436e-10
1.4562269e-09
4.4253264e-13
1.3219582e-10
1.5037578e-09
-2.4330417e-11
1.3217814e-10
1.5039542e-09
-3.7607078e-11
1.5625841e-10
1.4568231e-09
-2.7034514e-11
1.6379229e-10
1.2830239e-09
1.154276e-10
8.8843725e-10
5.4270328e-14
3.6283991e-11
1.9875548e-10
1.219767e-09
-2.9079406e-14
5.08503e-11
2.6707415e-10
1.6889001e-09
3.3896489e-11
2.5280661e-10
1.8913008e-09
5.5722424e-13
2.166473e-10
1.9444952e-09
-3.2856484e-11
2.1662033e-10
1.9447206e-09
-5.0034652e-11
2.5275858e-10
1.891995e-09
-3.5832555e-11
2.6713852e-10
1.6899559e-09
1.9878493e-10
1.2207892e-09
1.0280665e-13
4.4217612e-11
2.9690342e-10
1.5257536e-09
-5.0575875e-14
6.1674375e-11
3.8052363e-10
2.0354329e-09
4.1460846e-11
3.5714395e-10
2.2486942e-09
6.4396736e-13
3.0956936e-10
2.3020417e-09
-4.0252958e-11
3.0953331e-10
2.3022771e-09
-6.0706089e-11
3.570693e-10
2.2494301e-09
-4.3643458e-11
3.8059252e-10
2.0365888e-09
2.9692437e-10
1.526931e-09
1.5953504e-13
5.0979773e-11
4.0326118e-10
1.798789e-09
-7.5300491e-14
7.0462026e-11
4.9539271e-10
2.3227343e-09
4.7648082e-11
4.6103463e-10
2.5325684e-09
7.0736875e-13
4.0385953e-10
2.5818578e-09
-4.6314801e-11
4.0381551e-10
2.5820897e-09
-6.9371571e-11
4.6093167e-10
2.5333029e-09
-5.0292308e-11
4.9545558e-10
2.3239258e-09
4.0326389e-10
1.8000637e-09
2.2077319e-13
5.6241625e-11
5.1047465e-10
2.0330009e-09
-1.020414e-13
7.7065948e-11
6.0305116e-10
2.552719e-09
5.2348108e-11
5.5680774e-10
2.7473744e-09
7.5174326e-13
4.9276961e-10
2.7896614e-09
-5.0924464e-11
4.9271944e-10
2.7898801e-09
-7.5879754e-11
5.5667769e-10
2.748076e-09
-5.5452592e-11
6.0309986e-10
2.5538934e-09
5.1044968e-10
2.0343201e-09
2.8364889e-13
5.9574477e-11
2.223524e-09
-1.2896181e-13
6.1104787e-10
8.1412037e-11
2.7285207e-09
6.9534127e-10
5.5510883e-11
2.8977874e-09
6.3777758e-10
7.8051041e-13
2.9314022e-09
5.7027027e-10
-5.402481e-11
2.9316019e-09
5.7021507e-10
-8.0152964e-11
2.898434e-09
6.3762517e-10
-5.8690996e-11
2.7296357e-09
6.953661e-10
2.2248415e-09
3.4247614e-13
6.1099683e-10
3.9719374e-12
8.0677673e-12
1.6420638e-10
3.6434586e-15
5.1241403e-12
1.4531956e-11
2.7120182e-10
3.1536198e-12
1.43453e-11
3.2496977e-10
1.541459e-13
1.1351069e-11
3.4351289e-10
-2.873965e-12
1.1349609e-11
3.4360179e-10
-4.9264314e-12
1.4343739e-11
3.2522637e-10
-3.8920338e-12
1.4544355e-11
2.7154463e-10
8.074926e-12
1.6447493e-10
-1.9769497e-15
1.091449e-11
3.2907834e-11
5.0120933e-10
2.4955494e-15
1.5030161e-11
5.2976644e-11
7.7223229e-10
9.8262001e-12
5.1791164e-11
9.0727718e-10
4.0944773e-13
4.205725e-11
9.5328698e-10
-9.0769249e-12
4.2050941e-11
9.5350439e-10
-1.4484301e-11
5.1783415e-11
9.0791443e-10
-1.0666958e-11
5.3012746e-11
7.7311651e-10
3.2920997e-11
5.0195784e-10
2.3317681e-14
1.7090286e-11
7.3336598e-11
8.3011895e-10
-6.6270951e-15
2.4255749e-11
1.0977555e-10
1.2181815e-09
1.6420272e-11
1.0629078e-10
1.4095627e-09
6.1318186e-13
8.7877164e-11
1.473745e-09
-1.5290012e-11
8.7862826e-11
1.4740455e-09
-2.340829e-11
1.0626913e-10
1.4104557e-09
-1.6669903e-11
1.0983808e-10
1.2194602e-09
7.3350327e-11
8.3126594e-10
7.2078361e-14
2.2726177e-11
1.2705669e-10
1.1433437e-09
-2.2983145e-14
3.2768803e-11
1.7943345e-10
1.6091996e-09
2.2704294e-11
1.7206629e-10
1.8355898e-09
7.713865e-13
1.4437251e-10
1.9099328e-09
-2.1273505e-11
1.4434837e-10
1.9102799e-09
-3.1667101e-11
1.7202249e-10
1.8366352e-09
-2.2133741e-11
1.7951704e-10
1.6107435e-09
1.2706316e-10
1.1448039e-09
1.3878245e-13
2.7923391e-11
1.9086736e-10
1.4340652e-09
-4.560621e-14
4.0535839e-11
2.5646598e-10
1.9457879e-09
2.8532747e-11
2.4361682e-10
2.1891468e-09
8.9042994e-13
2.0711322e-10
2.2669433e-09
-2.6871466e-11
2.0707875e-10
2.2673086e-09
-3.9225175e-11
2.4354432e-10
2.190262e-09
-2.7165893e-11
2.5656041e-10
1.9474862e-09
1.9085767e-10
1.4357533e-09
2.173414e-13
3.2646233e-11
2.608652e-10
1.6962181e-09
-7.3256946e-14
4.742506e-11
3.3547279e-10
2.2289486e-09
3.3747751e-11
3.1575874e-10
2.4741038e-09
9.7668409e-13
2.7179116e-10
2.549951e-09
-3.1915413e-11
2.7174692e-10
2.5503136e-09
-4.594704e-11
3.1565408e-10
2.4752248e-09
-3.1735387e-11
3.3556634e-10
2.2307082e-09
2.6083052e-10
1.6980529e-09
3.0251579e-13
3.6726113e-11
3.3271845e-10
1.9245263e-09
-1.0472486e-13
5.3313109e-11
4.1119758e-10
2.4604072e-09
3.8213451e-11
3.8377935e-10
2.6944535e-09
1.0361602e-12
3.3438222e-10
2.7642476e-09
-3.6259261e-11
3.3432979e-10
2.7645927e-09
-5.1704372e-11
3.8364249e-10
2.6955327e-09
-3.5677338e-11
4.1128086e-10
2.4621518e-09
3.3265009e-10
1.9264331e-09
3.9012634e-13
3.9819888e-11
2.114513e-09
-1.3834666e-13
4.020479e-10
5.8038351e-11
2.6428431e-09
4.7865671e-10
4.1793966e-11
2.8542349e-09
4.4357622e-10
1.0737115e-12
2.9152155e-09
3.9128909e-10
-3.9757205e-11
2.9155334e-09
3.9122919e-10
-5.6330725e-11
2.8552386e-09
4.4341144e-10
-3.8643312e-11
2.6445114e-09
4.7871779e-10
2.1164261e-09
4.7213682e-13
4.0195006e-10
2.6214157e-12
5.2232587e-12
1.5635656e-10
5.1396067e-15
3.3346074e-12
9.9391626e-12
2.6054946e-10
2.056947e-12
1.0126581e-11
3.1612085e-10
2.1575133e-13
8.0210089e-12
3.3733308e-10
-1.67107e-12
8.0215223e-12
3.3746709e-10
-3.0696099e-12
1.0122784e-11
3.1650213e-10
-2.5194206e-12
9.9478995e-12
2.6104654e-10
5.2218009e-12
1.5673757e-10
-3.8614355e-15
7.1452027e-12
2.1467753e-11
4.7780761e-10
1.2026861e-14
9.8080186e-12
3.6383211e-11
7.4312543e-10
6.5231745e-12
3.6618697e-11
8.8406991e-10
5.7225986e-13
2.9760005e-11
9.374989e-10
-5.4863302e-12
2.9756425e-11
9.3782808e-10
-9.0729037e-12
3.6603484e-11
8.850203e-10
-6.8259519e-12
3.6405097e-11
7.4441236e-10
2.1449125e-11
4.7887464e-10
2.9927353e-14
1.1130576e-11
4.8163331e-11
7.9228028e-10
1.2511326e-14
1.5886095e-11
7.5686197e-11
1.174123e-09
1.1040353e-11
7.528906e-11
1.3757381e-09
8.558938e-13
6.2276496e-11
1.451413e-09
-9.4752106e-12
6.2263394e-11
1.4518697e-09
-1.4741477e-11
7.5252031e-11
1.3770734e-09
-1.058544e-11
7.5720873e-11
1.1759884e-09
4.8113762e-11
7.939198e-10
9.6069083e-14
1.4765149e-11
8.3992798e-11
1.0927437e-09
5.4382253e-15
2.1600838e-11
1.2422684e-10
1.5538233e-09
1.5470889e-11
1.2217125e-10
1.7948376e-09
1.075105e-12
1.0253446e-10
1.8840706e-09
-1.3490165e-11
1.0250854e-10
1.8846e-09
-2.0109599e-11
1.2210195e-10
1.7964047e-09
-1.3993454e-11
1.2426863e-10
1.5560796e-09
8.3901715e-11
1.0948348e-09
1.8770121e-13
1.8160882e-11
1.2701237e-10
1.3728962e-09
-1.1469684e-14
2.6981614e-11
1.7838697e-10
1.882807e-09
1.9737648e-11
1.7352573e-10
2.1450362e-09
1.2387755e-12
1.4755274e-10
2.2404239e-09
-1.7439889e-11
1.4751252e-10
2.2409833e-09
-2.5204828e-11
1.7341632e-10
2.1467126e-09
-1.7170229e-11
1.7842712e-10
1.8852931e-09
1.2687095e-10
1.3753174e-09
2.9640531e-13
2.1340371e-11
1.7479296e-10
1.6271334e-09
-3.6205777e-14
3.1979485e-11
2.3461844e-10
2.1620781e-09
2.374305e-11
2.2586401e-10
2.4300019e-09
1.3558605e-12
1.9447238e-10
2.5254185e-09
-2.1212246e-11
1.9441806e-10
2.5259761e-09
-2.9974093e-11
2.2571083e-10
2.4316921e-09
-2.014505e-11
2.3464787e-10
2.1646584e-09
1.7459562e-10
1.6297684e-09
4.1482264e-13
2.4226752e-11
2.2461089e-10
1.8505491e-09
-6.7534777e-14
3.6528164e-11
2.8948028e-10
2.393244e-09
2.7386425e-11
2.7603415e-10
2.6534251e-09
1.4348689e-12
2.4064447e-10
2.7440271e-09
-2.4692349e-11
2.4057774e-10
2.7445602e-09
-3.4344939e-11
2.7583796e-10
2.6550582e-09
-2.2846458e-11
2.8949331e-10
2.3958079e-09
2.2435429e-10
1.853291e-09
5.3697556e-13
2.657395e-11
2.0389204e-09
-1.0587855e-13
2.737354e-10
4.0501337e-11
2.5787289e-09
3.396671e-10
3.0546058e-11
2.8189555e-09
3.2126887e-10
1.482806e-12
2.9012414e-09
2.8368182e-10
-2.7744437e-11
2.9017349e-09
2.8360348e-10
-3.8184516e-11
2.8204806e-09
3.2103604e-10
-2.5022554e-11
2.5811873e-09
3.3965547e-10
2.0416744e-09
6.5157993e-13
2.7343187e-10
1.8562533e-12
3.5706452e-12
1.5092023e-10
9.432109e-15
2.3877323e-12
7.0631116e-12
2.5295487e-10
1.5272575e-12
7.5058964e-12
3.0947543e-10
3.0445373e-13
6.1169861e-12
3.324389e-10
-9.9007767e-13
6.1181033e-12
3.3264352e-10
-2.0318983e-12
7.4902739e-12
3.1005368e-10
-1.7276066e-12
7.0498289e-12
2.5369242e-10
3.5412546e-12
1.514759e-10
-7.1823947e-15
5.0065223e-12
1.4745784e-11
4.6158845e-10
3.7496275e-14
6.9308333e-12
2.5958694e-11
7.2230553e-10
4.7782107e-12
2.715178e-11
8.6657665e-10
8.0650277e-13
2.2622498e-11
9.249651e-10
-3.3321999e-12
2.2616662e-11
9.2546822e-10
-5.9396821e-12
2.7100687e-11
8.6801737e-10
-4.6006174e-12
2.5910164e-11
7.2421296e-10
1.4631652e-11
4.631456e-10
3.8030833e-14
7.7333993e-12
3.3210402e-11
7.6601675e-10
6.5518026e-14
1.1138349e-11
5.419443e-11
1.1424823e-09
8.0284285e-12
5.5890598e-11
1.3501092e-09
1.204673e-12
4.7271991e-11
1.4335872e-09
-5.8450546e-12
4.725e-11
1.4342861e-09
-9.5912161e-12
5.5787089e-11
1.3521332e-09
-7.0378227e-12
5.4099441e-11
1.1452457e-09
3.2977216e-11
7.6840921e-10
1.2720209e-13
1.018227e-11
5.8152421e-11
1.0575326e-09
8.6769375e-14
1.5073682e-11
8.9290898e-11
1.5138354e-09
1.1209447e-11
9.0865665e-11
1.7637268e-09
1.5108149e-12
7.780743e-11
1.8632338e-09
-8.4477661e-12
7.7763748e-11
1.8640449e-09
-1.3054363e-11
9.069676e-11
1.7661017e-09
-9.1944881e-12
8.9143661e-11
1.5171755e-09
5.778228e-11
1.0605828e-09
2.5243466e-13
1.2454613e-11
8.8333009e-11
1.3301641e-09
9.6870124e-14
1.8797995e-11
1.2876537e-10
1.8369892e-09
1.4297466e-11
1.2939599e-10
2.1110065e-09
1.737428e-12
1.1204841e-10
2.2187429e-09
-1.1097191e-11
1.1198066e-10
2.219601e-09
-1.6388886e-11
1.2915493e-10
2.1135461e-09
-1.1182381e-11
1.2856424e-10
1.840666e-09
8.7822389e-11
1.3336927e-09
4.0222795e-13
1.4593424e-11
1.2217572e-10
1.578604e-09
9.3277895e-14
2.2314264e-11
1.7017372e-10
2.1129489e-09
1.7248505e-11
1.6898331e-10
2.3954803e-09
1.8972288e-12
1.479248e-10
2.5048934e-09
-1.3729182e-11
1.4783346e-10
2.5057498e-09
-1.9593064e-11
1.6867042e-10
2.3980405e-09
-1.305315e-11
1.6992139e-10
2.1167613e-09
1.2153208e-10
1.5824392e-09
5.6639472e-13
1.6570111e-11
1.5788743e-10
1.7981924e-09
7.4906861e-14
2.560415e-11
2.1112678e-10
2.3432569e-09
2.0007315e-11
2.0735869e-10
2.6206466e-09
2.0023874e-12
1.8352215e-10
2.7264346e-09
-1.6268543e-11
1.834101e-10
2.7272545e-09
-2.2640813e-11
2.0698063e-10
2.6231202e-09
-1.478557e-11
2.1083244e-10
2.3470416e-09
1.5712405e-10
1.802177e-09
7.3652478e-13
1.8213251e-11
1.9848883e-09
4.0529241e-14
1.9366577e-10
2.8592494e-11
2.530193e-09
2.492834e-10
2.2491597e-11
2.7899109e-09
2.4250419e-10
2.0630988e-12
2.8880889e-09
2.1710316e-10
-1.8612979e-11
2.888849e-09
2.1697209e-10
-2.5448036e-11
2.7922224e-09
2.4207388e-10
-1.620182e-11
2.5338205e-09
2.48953e-10
1.9888842e-09
8.9687386e-13
1.9281553e-10
1.4149865e-12
2.6482663e-12
1.4683325e-10
2.3736938e-14
1.9209725e-12
5.2623552e-12
2.4718653e-10
1.3417663e-12
5.8298122e-12
3.0422482e-10
4.3800981e-13
4.9615247e-12
3.2838113e-10
-5.7721458e-13
4.9567081e-12
3.2870204e-10
-1.4358056e-12
5.7715232e-12
3.0514075e-10
-1.2527239e-12
5.1752126e-12
2.4833413e-10
2.5431964e-12
1.4769335e-10
-1.336869e-14
3.7824875e-12
1.0899185e-11
4.4944014e-10
1.1490734e-13
5.4433835e-12
1.9410301e-11
7.0649669e-10
4.029695e-12
2.1091703e-11
8.5272845e-10
1.1580497e-12
1.8262673e-11
9.1453559e-10
-1.9748336e-12
1.8230712e-11
9.1532711e-10
-4.0932707e-12
2.0901928e-11
8.5500541e-10
-3.2767466e-12
1.9081372e-11
7.0949028e-10
1.0506954e-11
4.5185963e-10
4.5464014e-14
5.7883603e-12
2.4499148e-11
7.4640432e-10
2.2409708e-13
8.6033113e-12
4.0627489e-11
1.1184502e-09
6.5958234e-12
4.3445321e-11
1.3297631e-09
1.7263091e-12
3.8048802e-11
1.4186706e-09
-3.4980165e-12
3.7971287e-11
1.4197698e-09
-6.4971424e-12
4.3081728e-11
1.3329525e-09
-4.925501e-12
4.0040344e-11
1.1227151e-09
2.3720809e-11
7.5010708e-10
1.6277095e-13
7.541631e-12
4.2860057e-11
1.0312998e-09
3.3030901e-13
1.1475823e-11
6.7102892e-11
1.4834258e-09
9.0191152e-12
7.0709606e-11
1.7389192e-09
2.1598413e-12
6.2497672e-11
1.8456442e-09
-5.1083493e-12
6.2366634e-11
1.8469177e-09
-8.7284644e-12
7.0160668e-11
1.7426429e-09
-6.3180855e-12
6.6267606e-11
1.4885379e-09
4.1661577e-11
1.0359929e-09
3.3099955e-13
9.1287561e-12
6.5108696e-11
1.2983682e-09
4.1850703e-13
1.4135502e-11
9.7027926e-11
1.8020574e-09
1.1314248e-11
1.0084426e-10
2.0836931e-09
2.4768485e-12
8.9879948e-11
2.200198e-09
-6.7927901e-12
8.9695103e-11
2.2015422e-09
-1.0859597e-11
1.0012044e-10
2.0876531e-09
-7.5515443e-12
9.5975761e-11
1.8076498e-09
6.3506852e-11
1.3037611e-09
5.3475822e-13
1.0597209e-11
9.014434e-11
1.5424924e-09
4.786801e-13
1.6615817e-11
1.286212e-10
2.075337e-09
1.3478995e-11
1.3194887e-10
2.3675126e-09
2.6959934e-12
1.1857272e-10
2.4869836e-09
-8.5200518e-12
1.1833953e-10
2.4883214e-09
-1.2917868e-11
1.3107545e-10
2.3714833e-09
-8.6831383e-12
1.2739838e-10
2.081104e-09
8.8190562e-11
1.5483121e-09
7.6021783e-13
1.1942905e-11
1.1671778e-10
1.759171e-09
5.0499814e-13
1.8932358e-11
1.6013194e-10
2.3047567e-09
1.5498615e-11
1.6228942e-10
2.5937397e-09
2.8352048e-12
1.4708289e-10
2.7105879e-09
-1.0246527e-11
1.4681086e-10
2.7118649e-09
-1.4908581e-11
1.613004e-10
2.5975573e-09
-9.717952e-12
1.5879661e-10
2.3104528e-09
1.1448045e-10
1.7651733e-09
9.9578385e-13
1.3046581e-11
1.9444887e-09
4.8751476e-13
1.435833e-10
2.1053469e-11
2.4925028e-09
1.898153e-10
1.7331296e-11
2.7656156e-09
1.9030687e-10
2.9096376e-12
2.8755405e-09
1.7405302e-10
-1.1900916e-11
2.8767205e-09
1.7374994e-10
-1.6787349e-11
2.7691657e-09
1.8924347e-10
-1.0528373e-11
2.4979351e-09
1.8842303e-10
1.95046e-09
1.2197221e-12
1.4115649e-10
1.1535636e-12
2.3002282e-12
1.4331178e-10
6.7678453e-14
1.7300255e-12
4.2054129e-12
2.4240466e-10
1.3741118e-12
4.74114e-12
2.998396e-10
6.3724623e-13
4.2023155e-12
3.2491568e-10
-2.6661236e-13
4.171285e-12
3.2543461e-10
-1.0376869e-12
4.5266062e-12
3.0138522e-10
-9.6069057e-13
3.6032046e-12
2.4465393e-10
1.9122062e-12
1.4484158e-10
-2.1132163e-14
3.0576883e-12
9.1660858e-12
4.391799e-10
3.3669262e-13
4.7794214e-12
1.5463066e-11
6.9351731e-10
3.9353286e-12
1.7117397e-11
8.4119628e-10
1.6829571e-12
1.5380673e-11
9.0560961e-10
-9.6486331e-13
1.5262152e-11
9.0688406e-10
-2.8499755e-12
1.6482244e-11
8.4493488e-10
-2.3263273e-12
1.4229352e-11
6.9834048e-10
8.0153111e-12
4.4333565e-10
9.4547363e-14
4.6291238e-12
2.0203924e-11
7.3007639e-10
6.6097634e-13
7.4099704e-12
3.2292113e-11
1.0988403e-09
6.2302781e-12
3.5230982e-11
1.3128292e-09
2.5039993e-12
3.1928051e-11
1.4058495e-09
-1.7717974e-12
3.1692172e-11
1.4076156e-09
-4.4631138e-12
3.4122774e-11
1.3180033e-09
-3.5099281e-12
3.039566e-11
1.1055956e-09
1.8024646e-11
7.3632906e-10
2.5875651e-13
5.9521795e-12
3.484025e-11
1.0097262e-09
9.8513187e-13
9.6966504e-12
5.3251592e-11
1.4587219e-09
8.2698562e-12
5.7327982e-11
1.718249e-09
3.1246599e-12
5.2296872e-11
1.8304206e-09