/*--------------------------------*- C++ -*----------------------------------*\
  =========                 |
  \\      /  F ield         | OpenFOAM: The Open Source CFD Toolbox
   \\    /   O peration     | Website:  https://openfoam.org
    \\  /    A nd           | Version:  13
     \\/     M anipulation  |
\*---------------------------------------------------------------------------*/
FoamFile
{
    format      ascii;
    class       volScalarField;
    location    "0.08";
    object      rho;
}
// * * * * * * * * * * * * * * * * * * * * * * * * * * * * * * * * * * * * * //

dimensions      [1 -3 0 0 0 0 0];

internalField   nonuniform List<scalar> 
51200
(
1
1
1
1
1
1
1
1
1
1
1
1
1
1
1
1
1
1
1
1
1
1
1
1
1
1
1
1
1
1
1
1
1
1
1
1
1
1
1
1
1
1
1
1
1
1
1
1
1
1
1
1
1
1
1
1
1
1
1
1
1
1
1
1
1
1
1
1
1
1
1
1
1
1
1
1
1
1
1
1
1
1
1
1
1
1
1
1
1
1
1
1
1
1
1
1
1
1
1
1
1
1
1
1
1
1
1
1
1
1
1
1
1
1
1
1
1
1
1
1
1
1
1
1
1
1
1
1
1
1
1
1
1
1
1
1
1
1
1
1
1
1
1
1
1
1
1
1
1
1
1
1
1
1
1
1
1
1
1
1
1
1
1
1
1
1
1
1
1
1
1
1
1
1
1
1
1
1
1
1
1
1
1
1
1
1
1
1
1
1
1
1
1
1
1
1
1
1
1
1
1
1
1
1
1
1
1
1
1
1
1
1
1
1
1
1
1
1
1
1
1
1
1
1
1
1
1
1
1
1
1
1
1
1
1
1
1
1
1
1
1
1
1
1
1
1
1
1
1
1
1
1
1
1
1
1
1
1
1
1
1
1
1
1
1
1
1
1
1
1
1
1
1
1
1
1
1
1
1
1
1
1
1
1
1
1
1
1
1
1
1
1
1
1
1
1
1
1
1
1
1
1
1
1
1
1
1
1
1
1
1
1
1
1
1
1
1
1
1
1
1
1
1
1
1
1
1
1
1
1
1
1
1
1
1
1
1
1
1
1
1
1
1
1
1
1
1
1
1
1
1
1
1
1
1
1
1
1
1
1
1
1
1
1
1
1
1
1
1
1
1
1
1
1
1
1
1
1
1
1
1
1
1
1
1
1
1
1
1
1
1
1
1
1
1
1
1
1
1
1
1
1
1
1
1
1
1
1
1
1
1
1
1
1
1
1
1
1
1
1
1
1
1
1
1
1
1
1
1
1
1
1
1
1
1
1
1
1
1
1
1
1
1
1
1
1
1
1
1
1
1
1
1
1
1
1
1
1
1
1
1
1
1
1
1
1
1
1
1
1
1
1
1
1
1
1
1
1
1
1
1
1
1
1
1
1
1
1
1
1
1
1
1
1
1
1
1
1
1
1
1
1
1
1
1
1
1
1
1
1
1
1
1
1
1
1
1
1
1
1
1
1
1
1
1
1
1
1
1
1
1
1
1
1
1
1
1
1
1
1
1
1
1
1
1
1
1
1
1
1
1
1
1
1
1
1
1
1
1
1
1
1
1
1
1
1
1
1
1
1
1
1
1
1
1
1
1
1
1
1
1
1
1
1
1
1
1
1
1
1
1
1
1
1
1
1
1
1
1
1
1
1
1
1
1
1
1
1
1
1
1
1
1
1
1
1
1
1
1
1
1
1
1
1
1
1
1
1
1
1
1
1
1
1
1
1
1
1
1
1
1
1
1
1
1
1.0000003
1.0000247
1.0000011
1
1
1
1
1
1
1.0000001
1
1
1
1
1
1
1
1
1
1
1
1
1
1
1
1
1
1
1
1
1
1
1
1
1
1
1
1
1
1
1
1
1
1
1
1
1
1
1
1
1
1
1
1
1
1
1
1
1
1
1
1
1.0000001
1
1
1.0002824
1.0000027
1
1
1
1
1
1
1.0000009
1
1
1
1
1
1
1
1
1
1
1
1
1
1
1
1
1
1
1
1
1
1
1
1
1
1
1
1
1
1
1
1
1
1
1
1
1
1
1
1
1
1
1
1
1
1
1
1
1
1.0001191
1
1
1
1.0000056
1.0007461
1.0004397
1.0000006
1.0000004
1
1
1
1
1
1.0000014
1.0000006
1
1
1
1
1
1
1
1
1
1
1
1
1
1
1
1
1
1
1
1
1
1
1
1
1
1
1
1
1
1
1
1
1
1
1
1
1
1
1
1
1
1
1
1
1
1
1
1
1.0007794
1.0001849
1
1.0000056
1
1.0062265
1.0003201
1.0005916
1
1.0000005
1
1
1
1.0000534
1.0000033
1.0000043
1
1
1
1
1
1
1
1
1
1
1
1
1
1
1
1
1
1
1
1
1
1
1
1
1
1
1
1
1
1
1
1
1
1
1
1
1
1
1
1
1
1
1
1
1
1
1
1
1.0014743
1.000279
1
1.0001887
1.0010396
1.0077138
1.0000635
1.0007906
1
1.000001
1
1
1
1.0002166
1.0000424
1.0000153
1
1
1
1
1
1.0000002
1.0000002
1.0000002
1
1
1
1
1
1
1
1
1
1
1
1
1
1
1
1
1
1
1
1
1
1
1
1
1
1
1
1
1
1
1
1
1
1
1
1
1
1
1
1
1.0105142
1.000041
1
1.0005624
1.0347724
1.0049689
1.0000005
1.0003095
1.0006543
1.0000089
1
1.0000071
1.0008167
1.0003777
1.0001516
1.0000222
1
1
1
1
1
1
1
1.0000008
1
1
1
1
1
1
1
1
1
1
1
1
1
1
1
1
1
1
1
1
1
1
1
1
1
1
1
1
1
1
1
1
1
1
1
1
1
1
1
1
1.0206074
1.0001021
1
1.0004439
1.0473882
1.0046039
1.0000005
1.0000004
1.0037351
1.0000227
1
1.0000346
1.0026218
1.000764
1.0001189
1.0000181
1.001178
1
1
1.0000002
1
1
1
1.0000008
1.0000791
1
1
1
1
1
1
1
1.000001
1
1
1
1
1
1
1
1
1
1
1
1
1
1
1
1
1
1
1
1
1
1
1
1
1
1
1
1
1
1
1
1.0128317
1.0011924
1
1.0000645
1.0473882
1.0065077
1.002586
1.004992
1.0120966
1.0000908
1
1.0000033
1.0258734
1.0007165
1
1
1.0039636
1.0000001
1
1.0000039
1.000328
1
1
1.0000006
1.0000966
1
1
1
1
1
1
1
1.0000006
1
1
1
1
1
1
1
1
1
1
1
1
1
1
1
1
1
1
1
1
1
1
1
1
1
1
1
1
1
1
1
1.0032714
1.0013212
1.0000001
1.0001138
1.0473882
1.0078761
1.0129536
1.0458716
1.0091339
1.0000351
1
1
1.047386
1.0012838
1.0000001
1.0000295
1.0020309
1
1
1.0000026
1.0063025
1.000117
1.0000003
1
1
1
1
1.0000007
1
1
1
1
1.0000003
1
1
1
1
1
1
1
1
1
1
1
1
1
1
1
1
1
1
1
1
1
1
1
1
1
1
1
1
1
1
1
1.0016472
1.0006702
1
1.000528
1.0451275
1.0070594
1.0127023
1.0666507
1.0017122
1.0000359
1
1
1.0473721
1.0013437
1.0000002
1.0308585
1.000644
1
1
1
1.0332315
1.0011216
1
1
1.0000008
1
1
1.0000013
1.0004878
1.0000014
1
1
1
1
1
1.0000003
1
1
1
1
1
1
1
1
1
1
1
1
1
1
1
1
1
1
1
1
1
1
1
1
1
1
1
1
1.0023755
1.000045
1
1.0005009
1.0118568
1.0029731
1.0209389
1.0666521
1.0000002
1.0000396
1.0000127
1
1.0430369
1.0028322
1.0000001
1.0666507
1.0002356
1.0000001
1
1
1.0430055
1.0009691
1
1.0340421
1.0000014
1
1
1
1.0146815
1.0003687
1
1
1
1
1
1
1.0010003
1.0000441
1
1
1
1
1
1.0000002
1
1.0000002
1
1
1
1
1
1
1
1
1
1
1
1
1
1
1
1
1
1
1.0031095
1
1.0000079
1.0000323
1.0000629
1.0007047
1.025345
1.034926
1.0000002
1.0000396
1.0000145
1
1.0191145
1.0044986
1.001684
1.0500669
1.0000093
1.0000002
1
1
1.0429542
1.0010721
1.0011747
1.0462435
1.0000015
1
1
1
1.0407773
1.0012369
1.0002784
1.0117165
1
1
1
1
1.0169888
1.0008747
1.0000058
1
1
1
1
1.0000004
1.0000709
1.0000299
1
1
1
1
1
1.0000001
1
1.0000001
1
1
1
1
1
1
1
1
1
1
1.0032216
1
1.0000016
1
1.0014205
1.0001487
1.0076191
1.0048716
1.0004876
1.0000247
1
1
1
1.0025249
1.0059309
1.0157044
1.0000004
1.0000003
1
1
1.0219736
1.0025501
1.0019847
1.0462384
1.0000011
1.0000001
1
1
1.0322808
1.0025809
1.0021357
1.0451012
1
1.0000001
1
1
1.0023499
1.0008501
1.0002593
1.0117007
1
1.0000001
1
1
1
1.0000159
1.0000007
1
1
1
1
1
1
1
1
1
1
1
1
1
1
1
1
1
1.0015989
1
1.0000186
1.1321762
1.0372928
1.0000138
1.0000141
1.0045373
1.0033741
1
1.0120183
1.0946701
1.0489083
1.0001746
1.0050569
1.031845
1.0000003
1
1.0058297
1.0265993
1.0303972
1.0016392
1.0004348
1.0462006
1.0000003
1.0000002
1.0018508
1.0828204
1.0321574
1.0016059
1.0016966
1.0461473
1
1.0000012
1
1.1797226
1.0006001
1.000453
1.0007442
1.0352161
1
1.0000338
1.0027633
1.0338218
1.000258
1.0000614
1.0000037
1.0031994
1.0000009
1.0000499
1
1
1.0000024
1
1
1
1.000002
1.0000096
1
1
1
1
1
1
1.0006496
1
1
1.7581485
1.0658563
1.0000136
1.000183
1.0033139
1.002404
1
1
1.749357
1.0570283
1.0000136
1.0040147
1.0404826
1.0000015
1
1
1.8734814
1.0276659
1.0000138
1.0000136
1.0435582
1
1.0000061
1.0022949
1.8733444
1.0519999
1.000729
1.0000143
1.0461196
1
1.0006958
1.1237276
1.378427
1.2067753
1.0011058
1.0008193
1.0458798
1
1
1.1180872
1.7038659
1.1229696
1.0002084
1.0000029
1.0118661
1.0000008
1.0000558
1.0244584
1.8625062
1.0037313
1.0000027
1
1
1.0000025
1.0001505
1.0527203
1.4347307
1.0060761
1.0000829
1
1
1.0000989
1.0000045
1
1.8722377
1.0000676
1.0012824
1.0001971
1.0010617
1.0009154
1.0000264
1
1.8735993
1.0000136
1.0000136
1.0027858
1.0353552
1
1
1.0195209
1.8736713
1.0009517
1.0000136
1.0000136
1.0442492
1
1
1.046933
1.8728274
1.0232753
1.0000936
1.0000136
1.0444549
1
1.0000375
1.1535376
1.7723468
1.1064655
1.0001617
1.000798
1.0413398
1
1.0000137
1.0928597
1.872177
1.0269887
1.000201
1.0000211
1.0109797
1.0000005
1
1.0000003
1.8703459
1.0000078
1.0000074
1.0000021
1.0000026
1.0000014
1
1.0297171
1.8696444
1.0000439
1.000214
1.0000194
1
1.0000008
1
1.2457429
1.8735141
1.1142652
1.0058014
1.0009121
1.0001613
1
1
1.2890814
1.8736713
1.1318183
1.0001337
1.0019486
1.0193448
1
1
1.2927576
1.8737496
1.1355904
1.0000139
1.0000136
1.0439596
1
1
1.313861
1.8736518
1.1319421
1.0001294
1.0005486
1.0403574
1
1
1.3183892
1.873417
1.1345431
1.000278
1.0005771
1.0263369
1
1
1.3301931
1.8729483
1.1312088
1.0000016
1.0000008
1.0058906
1.0000001
1
1.3070457
1.8721735
1.1167067
1.0000006
1.0000001
1
1.0000001
1
1.2810592
1.8714033
1.0709904
1.0000004
1
1
1
1.003161
1.1703141
1.5156514
1.0929005
1.0005726
1.001297
1.000356
1
1
1.1717699
1.6511598
1.1103126
1.0001636
1.0001632
1.0045135
1
1
1.1278193
1.711543
1.1040608
1.0000156
1.0000139
1.0362772
1
1
1.1521309
1.6584937
1.1201309
1.0000209
1.0000156
1.0323471
1
1
1.1554221
1.7089054
1.1541494
1.0157976
1.0000134
1.0073193
1
1
1.1457177
1.7276796
1.1455001
1.0319504
1.0000016
1.0019023
1
1
1.140076
1.7953463
1.1365173
1.0616684
1.0015855
1
1.0000004
1
1.1451371
1.6581162
1.11836
1.0893254
1.0113289
1
1.000079
1.0197386
1.0203147
1.0302898
1.0312636
1.0615954
1.0086182
1.0002664
1.0000011
1.0114956
1.0256878
1.0256276
1.0187406
1.0182004
1.0073237
1.0021862
1
1.0071133
1.0586829
1.0295749
1.0257376
1.0250724
1.0022298
1.0307405
1
1.0013788
1.0729773
1.0392311
1.0483746
1.2470405
1.0565064
1.0323486
1
1.0024161
1.0571125
1.0467311
1.0685662
1.2708568
1.1408552
1.0088247
1
1.0015531
1.0664458
1.0469239
1.0578777
1.2709229
1.1851114
1.0012941
1
1.0002206
1.1295863
1.0545832
1.0554732
1.2707645
1.1678682
1.0019721
1.0000001
1
1.1446497
1.0526722
1.0536793
1.266265
1.0981137
1.0000009
1.0008488
1.0107612
1.0106598
1.9127113
6.9537039
1.0789643
1.0265434
1.0003769
1.0000042
1.0000061
1.0000622
1.8092255
8.7375265
1.0955225
1.0004349
1.001201
1.0000022
1.004848
1.0040518
1.7246782
8.0927025
1.0932729
1.0004657
1.0258391
1.0006884
1.0678987
1.0248623
1.702212
7.304212
1.1687902
1.0275784
1.0157326
1.0022354
1.0680711
1.0214242
1.24694
6.9701724
1.1620577
1.1153238
1.0000004
1.0021266
1.0216072
1.0001008
1.0090198
6.2688079
1.1529247
1.0375548
1.0000005
1
1
1.0000008
1.0001008
3.679281
1.1953066
1.0179399
1.0000216
1
1
1.002555
1.0038198
1.8466674
1.2128031
1.0099453
1.0000004
1.0001375
1.002426
4.1688441
26.221081
92.699298
1.000462
1.0003842
1.0003793
1.0007888
1.2451331
5.0813668
28.525086
95.108695
1.0004349
1.0004108
1.0007389
1.0065677
1.4739715
5.644952
18.320009
91.171899
1.0006592
1.0006914
1.0049374
1.0000838
1.0001355
5.8370869
20.081073
90.849292
1.0013696
1.00384
1.0004383
1.0000112
1.0050683
3.4505742
21.996256
82.712792
1.0028177
1.0040878
1.0000011
1
1.0447635
3.963073
14.3799
76.594096
1.0156042
1.0000215
1.0000195
1
1.0268281
2.1244864
10.016564
65.309527
1.0003409
1.0001755
1.0001151
1
1.0163281
1.7379248
6.0355639
69.663941
1.0001042
1.0000951
1.0001204
1.0116563
1.0021131
33.852254
190.24597
190.24611
54.596182
1.000462
1.0218573
1.013781
1.0021131
45.398782
190.24611
190.24613
67.328369
1.0004349
1.0053904
1.3340552
1.1210661
41.201668
190.23391
190.24611
66.697373
1.0004692
1.0004952
1.4997555
1.0099542
50.720087
186.73746
190.23371
69.192316
1.0004982
1.0004902
1.0238186
1.0062614
53.358171
142.75613
190.19799
66.543946
1.000524
1.0018373
1.0001769
1.0026592
48.019284
146.32711
190.13694
60.22243
1.0274935
1.0030805
1.101296
1.0062385
46.056553
152.88938
189.9203
49.331816
1.0036179
1.000045
1.2270967
1.0403074
32.318666
82.049149
175.34028
56.314219
1.0012012
1.0000696
1.0228449
1.0227747
27.006041
190.24253
190.24613
71.072954
1.0005857
1.0269006
1.0209406
1.0405186
36.361708
190.24611
190.24611
85.464073
1.0005248
1.0155627
1.150404
1.0228075
37.112259
190.24591
190.24613
84.95409
1.0004982
1.0148467
1.4932911
1.0158242
27.911671
183.53481
190.2459
92.152131
1.0005239
1.0037022
1.6067436
1.0108701
26.588115
190.17347
190.23059
89.457765
1.0005778
1.0006148
1.604529
1.0062385
17.487705
166.41227
190.17345
87.691799
1.0004352
1.0006879
1.2270131
1.0108669
14.120213
161.45108
190.11542
77.343428
1.0005282
1.0000252
1.1184549
1.0888005
7.6662003
93.960913
189.81216
66.261266
1.0018143
1.0020731
1.1307823
1.1062742
3.0932316
48.917106
79.524179
1.0520489
1.0009024
1.0155177
1.0449766
1.3520012
6.2232902
45.115145
78.435057
1.0013126
1.0011324
1.0074147
1.0067572
1.4159068
12.331379
45.34629
78.283955
1.0017761
1.0067392
1.0188954
1.0406242
1.486564
13.316582
33.263314
74.17052
1.0017586
1.012247
1.0189413
1.0374287
1.0158241
18.801241
34.215489
68.014389
1.0015614
1.0097302
1.0038075
1.0375247
1.0918859
14.158252
21.122009
62.608002
1.0014892
1.0042182
1.0027403
1.0387819
1.2372516
3.5040141
14.469152
44.116009
1.0458285
1.0005866
1.0031421
1.126108
1.5987471
1.2469769
5.9153558
40.645786
1.0003514
1.0120928
1.0022482
1.0228582
1.025029
1.4643929
1.0267465
1.0272716
1.0568385
1.0212198
1.0169394
1.0087654
1.0741779
1.2597408
1.0269456
1.9888097
1.0650723
1.0055199
1.0072175
1.0038581
1.1786744
1.5441462
1.6944656
1.2460408
1.0477253
1.0061532
1.0105158
1.0571695
1.3611905
2.5123691
1.9392374
1.0083789
1.0100168
1.0002961
1.0026759
1.1348966
1.3519112
1.9876977
1.9984418
1.0043903
1.0059706
1.0000242
1.000039
1.0436983
1.4121921
1.9922528
1.9478887
1.0017707
1.0014646
1.0007341
1.0054512
1.1031699
1.6955509
1.8175727
1.9677891
1.0001916
1.0001122
1.007373
1.0108375
1.1402425
1.6222419
1.5660061
1.6554405
1.3125201
1.0003644
1.0109019
1.0109964
1.0038006
1.1029697
1.207108
1.026466
1.0279378
1.3120836
1.1961286
1.0005615
1.0038011
1.1186104
1.329093
1.1901669
1.0561035
1.311907
1.0289029
1.0005418
1.0038006
1.0698903
1.5509924
1.5608154
1.1214702
1.2328104
1.0002712
1.0070173
1.020557
1.0269967
1.552035
1.6949959
1.0843244
1.0508734
1.000256
1.0070332
1.0333398
1.0328677
1.2240765
2.1740013
1.0997668
1.1049202
1.0000168
1.0015382
1.0072261
1.0358378
1.4159291
2.4845434
1.0095744
1.0001135
1.000052
1.0000283
1.0090729
1.0235527
2.0894655
2.4876992
1.0015262
1.0001116
1.0015395
1.0036545
1.0122852
1.0015842
2.4496743
2.4865224
1.0004119
1.0001122
1.0025673
1.0063993
1.0378665
1.2579702
1.2390139
1.021396
1.0298498
1.3120836
1.2089454
1.004088
1.3670024
2.3299517
2.3578823
1.2475805
1.0212913
1.2608791
1.2212457
1.0000623
1.0038214
2.1027526
2.5415131
2.5069814
1.0694552
1.2340101
1.0200429
1.0004316
1.0091539
1.9010324
2.5452692
2.0753699
1.1757269
1.2971146
1.0000138
1.0025483
1.0030084
1.7959586
2.5444873
1.1928507
1.1830553
1.305457
1.0000137
1.0012871
1.0067899
1.5200441
2.5450569
1.3490385
1.010901
1.3266653
1.0000135
1.0000135
1.0014619
1.337691
2.541912
1.1952458
1.0529521
1.3591007
1.0000135
1.0002008
1.0015152
1.2804596
2.536003
1.2392518
1.0541629
1.2503358
1.0000143
1.0006067
1.0114085
1.0564136
1.0790746
1.0075279
1.0166104
1.16792
1.1000583
1.0259254
1.0463034
1.250964
2.0104134
1.4227168
1.0092086
1.1383042
1.2217888
1.0045526
1.0087534
1.1427022
2.5363367
2.5184155
1.057462
1.2442985
1.0833343
1.0001611
1.0013577
1.271778
2.5412765
2.1750644
1.1668038
1.2969921
1.0000137
1.00015
1.0013965
1.3206325
2.5444873
1.2027463
1.2096405
1.3958998
1.0000135
1.0001681
1.0014254
1.2820744
2.5418745
1.3008455
1.0502748
1.418674
1.0000135
1.0000135
1.0014464
1.2899618
2.5364941
1.2372856
1.1001594
1.4730657
1.0000135
1.0000188
1.0015728
1.2081352
2.5323157
1.1003047
1.0769098
1.4748736
1.0000135
1.000148
1.008318
1.0071732
1.0092446
1.0032802
1.0092152
1.001145
1.0063395
1.0244006
1.0052155
1.0137961
1.0664061
1.0073936
1.0060105
1.0372386
1.0229862
1.0147427
1.0049454
1.0653239
1.2823256
1.6025968
1.0474328
1.1427377
1.0604308
1.0038302
1.001348
1.0982743
1.3219484
2.1744309
1.1104107
1.2328475
1.0129162
1.0001217
1.0013577
1.1897607
2.3704384
2.1457392
1.1969292
1.2803699
1.0000135
1.0001158
1.0085867
1.2697309
2.5372284
1.1555908
1.2644925
1.3842781
1.0000135
1.0000184
1.0172354
1.2636594
1.9217114
1.0391467
1.1455467
1.4788399
1.0000135
1.0000276
1.0128589
1.2573185
1.2070518
1.006275
1.105316
1.4802696
1.0000135
1.0001064
1.0050161
1.0071771
1.0112646
1.0012374
1.0028851
1.0000762
1.0006986
1.0087084
1.0048915
1.0021277
1.0016361
1.0011541
1.0052082
1.0043849
1.0019008
1.0075658
1.001524
1.0022889
1.0012031
1.0442621
1.0183488
1.1597298
1.014736
1.0061843
1.001348
1.0013819
1.0144485
1.3772954
1.0836499
1.3357626
1.0306555
1.0091503
1.0024199
1.054058
1.2736755
1.5567347
1.1128048
1.2672899
1.0000136
1.0085967
1.0152488
1.2826521
1.60391
1.2044444
1.2706734
1.3784873
1.0000135
1.0000136
1.0280755
1.2815696
1.0149062
1.0913966
1.2085474
1.4837854
1.0000135
1.0000135
1.0156679
1.2785361
1.0133285
1.0008666
1.1181383
1.4847261
1.0000135
1.0000239
1.0013551
1.0070419
1.0134497
1.0012544
1.000324
1.0000476
1.0011463
1.0007608
1.0033123
1.0027341
1.0021012
1.0011545
1.0066279
1.0212028
1.0017736
1.0013963
1.0011288
1.0010978
1.0011091
1.0011453
1.0267536
1.3217675
1.0275227
1.0059908
1.0017955
1.0011091
1.0083705
1.0029659
1.0680817
1.4883687
1.1045893
1.0818668
1.0043133
1.0075716
1.0388638
1.0131144
1.0644684
1.488568
1.1440174
1.0000239
1.0121474
1.0784348
1.0594708
1.2290019
1.17869
1.488523
1.1986802
1.0000135
1.0322709
1.2332508
1.0906117
1.2260076
1.1690289
1.4882955
1.1016701
1.0000135
1.0204824
1.2754742
1.1096784
1.0061954
1.099848
1.4870835
1.0062911
1.0000135
1.0001786
1.0039581
1.0134494
1.0013703
1.0000119
1.0000135
1.0008348
1.0006567
1.0009333
1.0057526
1.0048017
1.0038271
1.0062481
1.0189517
1.0049588
1.003309
1.0007527
1.0010904
1.0012487
1.001612
1.0256511
1.3779058
1.0910253
1.0035064
1.0025051
1.0029886
1.0183971
1.0017869
1.0337202
1.4885838
1.3251094
1.0967586
1.0050739
1.0056564
1.0380054
1.0018273
1.0394794
1.4885308
1.472845
1.0000139
1.0021835
1.007159
1.0216234
1.221048
1.0852971
1.4885944
1.4879843
1.0000137
1.0170312
1.0463053
1.0338149
1.2130645
1.0748133
1.4885115
1.471533
1.0000135
1.0249232
1.0650329
1.0453015
1.0023124
1.0725401
1.4101756
1.3519476
1.0000287
1.0000891
1.001928
1.0084863
1.0016534
1.0000089
1.0000626
1.0000731
1.0004299
1.0000891
1.0063366
1.012902
1.0116176
1.0026027
1.0028298
1.0041764
1.0107203
1.0003466
1.0017721
1.0015
1.0020894
1.0170421
1.1572701
1.0613032
1.011775
1.0021632
1.0027376
1.0256887
1.0020833
1.005052
1.4327156
1.343317
1.0446329
1.0034056
1.0037403
1.0378983
1.0019148
1.0242195
1.46903
1.4315824
1.0641671
1.000217
1.0002315
1.0265147
1.1823187
1.0083983
1.1768362
1.4850702
1.0517129
1.001987
1.0014043
1.0140657
1.1268079
1.0097273
1.3008661
1.4823925
1.0472499
1.0045271
1.0032336
1.0053399
1.0000741
1.0251986
1.1183817
1.4807878
1.0059059
1.0001009
1.0007914
1.0042133
1.001158
1.0000081
1.000046
1.0000039
1.0003564
1.0001272
1.0043854
1.0155911
1.0103014
1.0005375
1.0001509
1.0040237
1.0153201
1.0001857
1.0021937
1.0016993
1.0017537
1.0101687
1.0234862
1.0079418
1.0167005
1.0007393
1.001127
1.0165492
1.0043234
1.0099449
1.2565967
1.1146587
1.0262128
1.0006031
1.00153
1.0376172
1.0069358
1.0648053
1.301197
1.1983967
1.078818
1.0002163
1.0002395
1.0167508
1.0515635
1.0000777
1.0003441
1.3428646
1.1756691
1.0002021
1.0002369
1.0081632
1.0180791
1.000074
1.0212848
1.4807878
1.0980444
1.0001486
1.00313
1.0130607
1.0000709
1.0004631
1.0036408
1.3912506
1.0314915
1.0000696
1.000057
1.0007274
1.000078
1.000004
1.0000002
1.0000002
1.0003345
1.0003892
1.0021309
1.015593
1.0084132
1.0002122
1.0000695
1.0044813
1.0125174
1.0001439
1.0015838
1.0038198
1.0035448
1.0100997
1.0128516
1.0035918
1.0191372
1.0001378
1.0002094
1.0026631
1.0093252
1.0390727
1.0603721
1.0185099
1.0541194
1.0001323
1.0002399
1.0054884
1.0063315
1.0895683
1.0990354
1.0818928
1.0982202
1.0001322
1.0001778
1.0033918
1.0001233
1.000074
1.0000777
1.0635868
1.1150726
1.0003087
1.0001595
1.0009597
1.0000709
1.0000708
1.000074
1.067153
1.0786713
1.0001486
1.0016388
1.0055231
1.0000703
1.0000702
1.0006213
1.0591193
1.0230609
1.0000096
1
1.0000004
1
1.0000007
1
1.0000032
1.0000079
1.0000612
1.0055124
1.0155949
1.0066131
1.0000028
1.0020662
1.0047196
1.0037095
1.000805
1.001426
1.0096773
1.0148471
1.0091423
1.0132116
1.0035985
1.0157855
1.0004165
1.0000786
1.0004944
1.0104578
1.0390661
1.0023269
1.0249737
1.0787213
1.0001818
1.0000763
1.0000775
1.0049722
1.0733062
1.0040877
1.0204608
1.0983566
1.0000734
1.0000758
1.0000723
1.0001425
1.0005548
1.0002209
1.0022987
1.0450365
1.0004074
1.0001589
1.0000709
1.0000702
1.0000706
1.000324
1.0002093
1.0124909
1.0001485
1.0001762
1.0000702
1.0000699
1.0000696
1.0014018
1.0003113
1.0046358
1.0000001
1
1.0000112
1
1
1
1.0000076
1
1
1.0053955
1.0155899
1.0028865
1
1.0027809
1.0023442
1.0001198
1.0016359
1.0081376
1.0155947
1.0155706
1.0041328
1.0026885
1.0058941
1.0001252
1.000977
1.0012553
1.0021486
1.0111506
1.0194688
1.0002938
1.0410668
1.0294617
1.0001809
1.0000727
1.0000781
1.0030244
1.0132863
1.0003288
1.0354109
1.098361
1.0000726
1.000072
1.0000712
1.0001036
1.0004108
1.0001817
1.0008707
1.0689569
1.0003659
1.0000763
1.0000705
1.0000699
1.0000697
1.0001835
1.0001858
1.0059559
1.0001578
1.0000713
1.0000699
1.0000696
1.0000693
1.0016009
1.0002093
1.0002394
1
1
1
1
1
1
1.0000004
1
1
1.0021435
1.0114909
1.000303
1.0000143
1.0007422
1.0001108
1
1.0009688
1.0120673
1.0155927
1.0097733
1.0003958
1.0002614
1.0016876
1.0001461
1.0006983
1.0050988
1.0115579
1.0115539
1.0001173
1.0000228
1.0409604
1.0009407
1.0001138
1.0001244
1.0008398
1.0060224
1.0000559
1.0000204
1.053482
1.0535496
1.0000842
1.0000721
1.0000716
1.0000773
1.0001035
1.0012661
1.0340164
1.0686192
1.0000743
1.0000716
1.0000712
1.000078
1.0000693
1.0004133
1.0026813
1.0417701
1.0000725
1.0000721
1.0001862
1.0000693
1.0000691
1.000459
1.0002236
1.0023912
1
1
1
1
1
1
1
1
1.0000002
1.0001315
1.0019481
1.0000145
1.0000079
1
1
1
1.0000545
1.003148
1.0131595
1.0011086
1.0000048
1.0001801
1.0003367
1.0001715
1.0001544
1.0043357
1.01315
1.0103908
1.0000065
1.0001681
1.0098858
1.0002968
1.0000795
1.0023208
1.0081771
1.0104056
1.0000932
1.0000205
1.043918
1.0028353
1.0000932
1.0007757
1.0004806
1.0034923
1.0000717
1.0012143
1.0491983
1.0392313
1.0000752
1.0007083
1.0000716
1.0003603
1.0000687
1.0013946
1.0492663
1.0494141
1.0002905
1.0000725
1.0004214
1.0002239
1.0000688
1.0007275
1.0187881
1.0258513
1
1
1
1
1
1
1
1
1.0000017
1
1
1
1.0000017
1
1
1
1.0000017
1.0000084
1.0031195
1
1.0000048
1.0000564
1.0000477
1.0000233
1.0001245
1.0006104
1.010498
1.0041938
1.0000148
1.0002516
1.0000167
1.0000915
1.0000789
1.0015961
1.0104878
1.010455
1.0001717
1.0000325
1.0085506
1.0000109
1.0000774
1.0034674
1.0042797
1.0085828
1.0000679
1.0000326
1.0492113
1.0039456
1.0000762
1.0034575
1.0001954
1.0011675
1.0000683
1.0079869
1.0501779
1.0333313
1.0006824
1.0031935
1.0002265
1.0002543
1.0000687
1.0098013
1.0501807
1.0227107
1
1
1
1
1
1
1
1
1.000007
1
1
1
1.0000006
1.0000001
1
1
1.000017
1.0000174
1.0000246
1.0000291
1.0000042
1.0000009
1.0000011
1
1.000017
1.000038
1.0019602
1.0000084
1.0000125
1.0001203
1.0000001
1.0000149
1.0010939
1.0002899
1.0070474
1.0055766
1.0000765
1.0000024
1.0000002
1.0000107
1.0000784
1.0015996
1.005729
1.0066505
1.0000683
1.000245
1.0178647
1.0001406
1.0000774
1.0023799
1.0012941
1.0000688
1.0000687
1.0250544
1.0501818
1.0026113
1.0005673
1.0032188
1.000136
1.0000691
1.0000688
1.0258178
1.0429493
1.005718
1
1
1
1
1
1
1
1
1.0000012
1
1
1
1.0000003
1.0000001
1
1
1
1.0000177
1.0000835
1.0000146
1.0000017
1
1.0000015
1.0000002
1.004368
1.0002897
1.0003529
1.0000016
1.0000016
1.0000001
1.0000001
1.0000001
1.0186605
1.0002901
1.0005065
1.0003654
1.0000001
1.0000001
1.0000001
1.0001208
1.0238825
1.000427
1.0041585
1.0043839
1.0019596
1.0053575
1.0010847
1.0002679
1.0055014
1.0004519
1.0049107
1.0102762
1.0042298
1.0273211
1.0071577
1.0006668
1.0002061
1.0014039
1.0010125
1.0057224
1.0033969
1.0222636
1.0057395
1.0006749
1
1
1
1
1
1
1
1
1
1
1
1
1.0000001
1
1
1
1
1.000022
1.0003668
1
1.0000001
1
1.000001
1.0000001
1.0148234
1.0005698
1.0007017
1.000019
1
1
1
1
1.0373733
1.0003967
1.0003365
1.0003641
1
1.0005909
1.0020825
1.0012195
1.0394333
1.0004351
1.0025895
1.0123783
1.0084101
1.0044237
1.0010919
1.0039165
1.0175593
1.0004354
1.0076937
1.0210635
1.0205729
1.012738
1.0320885
1.0036933
1.0026346
1.0004682
1.0031862
1.0201287
1.0175204
1.0092085
1.0110573
1.0061591
1.0000003
1
1
1
1
1
1
1
1.0000176
1.0000001
1
1
1
1
1
1
1.0000084
1.0000294
1.0002835
1
1
1
1.0000002
1
1.0158259
1.0001204
1.0007087
1.0000688
1
1
1.0000388
1
1.0394553
1.001331
1.0003753
1.0003762
1.000017
1.0011798
1.0192358
1.0030384
1.0394941
1.0004354
1.0014422
1.0142491
1.0064016
1.0011867
1.0345971
1.0061377
1.0303657
1.0004368
1.005505
1.0210635
1.0205417
1.0013741
1.0490781
1.0042281
1.0231205
1.000447
1.0034989
1.0210599
1.0210296
1.003296
1.045391
1.0139139
1
1.0000001
1
1
1
1
1
1
1.0000113
1.0000026
1.0000001
1
1
1
1
1
1.0000017
1.0000017
1.0000024
1
1
1
1.0000001
1
1.0056238
1.0000017
1.0006468
1.0000207
1
1.0002567
1.0002322
1
1.0384757
1.0014083
1.0008094
1.0004344
1.0002138
1.003966
1.0264478
1.0024455
1.0395149
1.0118958
1.0002373
1.0051482
1.0009696
1.0177188
1.0490781
1.0051295
1.0395133
1.0071053
1.0011225
1.0142206
1.008677
1.0108397
1.0491035
1.0033459
1.0393313
1.0015066
1.0019826
1.0147647
1.0165385
1.0039923
1.0491131
1.0114336
1
1
1
1
1
1
1
1
1.0000108
1.0000621
1.000002
1
1
1
1
1
1.0002369
1.0001245
1
1
1.0000001
1
1.0000001
1
1.0010147
1.000046
1.0013564
1
1
1.0031414
1.000378
1.0000051
1.0280017
1.0116928
1.0018213
1.0003946
1.0002033
1.0288695
1.0164026
1.0006442
1.0395144
1.0365244
1.0002362
1.0003192
1.0002041
1.0472138
1.0451265
1.002338
1.0395149
1.0331377
1.000236
1.0011877
1.0017596
1.0445817
1.0491132
1.0015156
1.0388462
1.0078104
1.000264
1.0009919
1.0041252
1.0139441
1.0491169
1.0037936
1
1
1
1
1
1
1
1
1
1.0001118
1.0000009
1
1
1
1
1
1.0004255
1.0012847
1.0003576
1
1.0000001
1.0000004
1.0000001
1
1.0004256
1.0006707
1.0044089
1.0000851
1
1.0034621
1.000246
1.000003
1.0081479
1.0136053
1.0028317
1.0001275
1.0002026
1.0398549
1.0057703
1.0000543
1.0366813
1.0379309
1.0014026
1.0012148
1.0006023
1.0472174
1.0195611
1.0004575
1.0289626
1.0379332
1.0003014
1.0002451
1.0024883
1.0472197
1.0340242
1.0006754
1.0197588
1.0089691
1.0000811
1.0000819
1.0019449
1.0450651
1.0491118
1.0010917
1
1
1
1
1
1
1
1
1.0000122
1.0000221
1
1
1
1
1
1
1.0004369
1.0022326
1.0015928
1.0000466
1
1.0000007
1
1
1.0004519
1.0033814
1.0048403
1.0004377
1.0000003
1.0007739
1.0000346
1.0000002
1.0070972
1.0038961
1.0023441
1.0002559
1.0001666
1.0203684
1.0012546
1.0000167
1.0127117
1.0204305
1.0018812
1.0018805
1.0005739
1.0462563
1.0054125
1.0001293
1.0033325
1.0307685
1.0005594
1.0007551
1.0027396
1.0472049
1.0079392
1.0001002
1.0022126
1.0081426
1.0000808
1.0000887
1.002608
1.0471918
1.02252
1.0002004
1
1
1
1
1
1
1
1
1.0000008
1.0000032
1
1
1.0000001
1
1
1
1.0002654
1.0018855
1.0020879
1.0001225
1.0000001
1.0000001
1
1
1.0006222
1.0037708
1.0048403
1.000675
1
1.0000214
1.0000004
1
1.0040399
1.0001238
1.0011916
1.0003996
1.0000296
1.0023593
1.0000625
1.0000054
1.003719
1.0024645
1.0009711
1.0018755
1.000375
1.0158163
1.003301
1.000155
1.0002756
1.0024571
1.0014856
1.0023003
1.0015208
1.0270883
1.0017411
1.000078
1.0018611
1.0059073
1.0000397
1.0003721
1.0023888
1.0375744
1.0028209
1.0000661
1
1
1
1
1
1
1
1
1
1.0000006
1
1
1.0000003
1
1
1
1.000205
1.0006486
1.0014584
1.0000866
1.0000004
1
1
1
1.0013488
1.0016409
1.0048403
1.0005659
1
1.0000015
1
1
1.004651
1.0000068
1.0006019
1.0005982
1.0000002
1.0005185
1
1.0000007
1.0040497
1.0003661
1.0004918
1.001937
1.0003805
1.0012104
1.0016021
1.0001284
1.000255
1.0002523
1.0043814
1.0038587
1.0003808
1.002364
1.0011737
1.0000758
1.002422
1.0009685
1.0044577
1.0007919
1.0010278
1.0106881
1.0003013
1.0000549
1
1
1
1
1
1
1
1
1
1.0000007
1
1
1.0000008
1
1
1
1.0000126
1.0000172
1.000212
1.0000378
1.000002
1
1
1
1.0012479
1.0000254
1.0033774
1.0001543
1
1
1
1
1.0055353
1.0000014
1.0004085
1.0005891
1
1.0005339
1.0000308
1.0000005
1.004601
1.0001351
1.0000003
1.0016625
1.0006634
1.0015375
1.0002918
1.0000093
1.0002523
1.0002521
1.0046295
1.0026758
1.0020782
1.0007317
1.000743
1.0000191
1.0049481
1.0003974
1.0072605
1.0010258
1.0006043
1.0007264
1.0001774
1.000079
1
1
1
1
1
1
1
1
1
1.0000001
1
1
1.0000013
1
1
1
1.0000007
1.0000004
1.0000551
1.0000713
1.0000065
1
1
1
1.0008083
1.0000016
1.00022
1
1
1
1.0000001
1
1.0051958
1.0000002
1.000119
1.0003945
1
1.0003587
1.000019
1.000001
1.0012541
1.0000021
1
1.0005333
1.001648
1.0031379
1.0000233
1.000001
1.0003675
1.0001563
1.0039501
1.0005099
1.0036795
1.0029047
1.0002
1.0000197
1.0168622
1.0003617
1.0072632
1.0015093
1.002344
1.0018729
1.0001023
1.0001701
1
1
1
1
1
1
1
1
1
1
1
1
1.0000015
1
1
1
1.0000003
1.000002
1.0000737
1.0001318
1.0000106
1
1
1
1.0002216
1.0000134
1.000754
1.0007539
1
1
1.0000001
1
1.0037863
1.0000001
1.0000151
1.0000552
1.0000549
1.0001287
1.0000055
1.0000007
1.0038225
1
1
1.0001187
1.0026294
1.0032414
1.0000111
1.0000019
1.0000294
1.0000292
1.0026021
1.0004343
1.0036797
1.0036796
1.0000559
1.0000399
1.0141203
1.0001619
1.0072655
1.0022856
1.0036795
1.0036716
1.00007
1.0003229
1
1
1
1
1
1
1
1
1
1
1
1.0000001
1.0000013
1
1
1
1
1.0000048
1.000107
1.0001403
1.0000106
1
1
1
1.0000056
1.0000527
1.0011495
1.0011489
1
1
1.0000001
1
1.0018799
1.0000001
1
1.0000029
1.0000579
1.0000568
1.0000053
1.0000002
1.0037021
1
1.0000009
1.0001464
1.0024239
1.0024294
1.0000112
1.0000006
1.0001067
1.0000053
1.0011199
1.0005102
1.0036796
1.0036797
1.0000672
1.0000395
1.0059025
1.0000306
1.0066939
1.0025592
1.0036797
1.0036796
1.0005599
1.0003083
1
1
1
1
1
1
1
1
1
1
1
1
1.0000007
1
1
1
1
1.0000032
1.00006
1.0000825
1.0000093
1
1
1
1
1.0000445
1.0011493
1.000774
1
1
1.0000001
1
1.0012514
1
1
1
1.0000248
1.0000409
1.0000071
1.0000003
1.0026978
1
1.000001
1.0001187
1.0011095
1.0008623
1.0000116
1.0000001
1.0000009
1.0000047
1.0001867
1.0004672
1.0027613
1.0026398
1.0001265
1.0000295
1.0004223
1.0000511
1.0035197
1.001823
1.0033241
1.0024481
1.0025688
1.0001462
1
1
1
1
1
1
1
1
1
1
1
1
1.0000003
1
1
1
1
1.0000003
1.0000083
1.0000245
1.000005
1
1
1
1
1.000005
1.0003132
1.0002592
1
1
1.0000001
1.0000001
1.0018384
1
1
1
1.0000083
1.000038
1.0000098
1.0000004
1.003307
1
1.0000009
1.0000417
1.0001213
1.0001399
1.0000196
1.0000001
1.0000009
1.0000009
1.000009
1.0002005
1.0004679
1.0005611
1.0001609
1.0000145
1.0000008
1.0000212
1.0003906
1.0002907
1.0005266
1.0015983
1.0034157
1.000025
1
1
1
1
1
1
1
1
1
1
1
1
1
1
1
1
1
1
1.0000003
1.0000076
1.000001
1
1
1
1
1
1.000027
1.0006631
1
1
1
1.0000001
1.00831
1.0135535
1
1
1.0000031
1.0000414
1.0000135
1.0000005
1.017723
1
1.0000001
1.0000019
1.0000243
1.0001795
1.0000555
1.0000001
1.0215657
1
1
1.0000038
1.0000291
1.0002737
1.0001003
1.0000047
1.0000001
1
1
1.0000003
1.0003519
1.0026023
1.0034419
1.0000046
1
1
1
1
1
1
1
1
1
1
1
1
1
1
1
1
1
1
1.0000002
1
1.0000003
1
1
1
1.0014787
1.0173699
1.0000001
1.0008603
1.0000022
1
1
1.0000001
1.0279734
1.1467783
1
1.0007954
1.0000026
1.0000454
1.0000146
1.0000004
1.0635944
1.1521027
1
1
1.0000473
1.0004626
1.0001033
1
1.130656
1.1476881
1
1
1.00005
1.0004339
1.00007
1.0000001
1.0907742
1.0913943
1
1.0000001
1.0003087
1.0039333
1.0025136
1.0000008
1
1
1
1
1
1
1
1
1
1
1
1
1
1
1
1
1.0000048
1.0000101
1.0000004
1
1.0000005
1
1
1
1.0023898
1.0183563
1.0000003
1.0013423
1.0000414
1
1
1
1.0350938
1.2654332
1.0629013
1.0053076
1.0000026
1.0000244
1.0000117