/*--------------------------------*- C++ -*----------------------------------*\
  =========                 |
  \\      /  F ield         | OpenFOAM: The Open Source CFD Toolbox
   \\    /   O peration     | Website:  https://openfoam.org
    \\  /    A nd           | Version:  13
     \\/     M anipulation  |
\*---------------------------------------------------------------------------*/
FoamFile
{
    format      ascii;
    class       volVectorField;
    location    "0.08";
    object      U;
}
// * * * * * * * * * * * * * * * * * * * * * * * * * * * * * * * * * * * * * //

dimensions      [0 1 -1 0 0 0 0];

internalField   nonuniform List<vector> 
51200
(
(0.0535044 0.01296095 0.011883379)
(0.058571128 0.0070022159 0.012092949)
(0.057231372 0.0031483305 0.012178965)
(0.056509707 0.00083564465 0.01220884)
(0.056509742 -0.00083404827 0.012208836)
(0.057231478 -0.0031469032 0.012178957)
(0.058571305 -0.0070011687 0.01209294)
(0.053504626 -0.012960712 0.011883369)
(0.1231316 0.032016069 0.033974234)
(0.13008328 0.014351885 0.033235834)
(0.12706874 0.0065167042 0.033224145)
(0.12566021 0.0017607517 0.033251826)
(0.12566028 -0.0017571954 0.03325181)
(0.12706895 -0.0065135243 0.033224107)
(0.13008363 -0.014349471 0.033235789)
(0.1231321 -0.03201534 0.033974192)
(0.16711359 0.041784172 0.046631811)
(0.17244212 0.018146271 0.044395045)
(0.16854138 0.0083026073 0.044183322)
(0.16688887 0.0022626911 0.044267282)
(0.16688895 -0.0022579457 0.044267248)
(0.16854162 -0.0082983315 0.044183233)
(0.17244251 -0.018142892 0.044394919)
(0.16711421 -0.041782898 0.046631685)
(0.1942635 0.045588888 0.052596616)
(0.19685665 0.019888879 0.048894262)
(0.19261558 0.0091332143 0.04847625)
(0.19095798 0.0025081835 0.048624832)
(0.19095806 -0.002502726 0.048624781)
(0.19261581 -0.0091282523 0.048476105)
(0.19685702 -0.019884808 0.048894047)
(0.19426414 -0.045587043 0.052596365)
(0.210248 0.046049322 0.054445929)
(0.21013009 0.020441469 0.049579849)
(0.20590279 0.0093856835 0.049011947)
(0.20435735 0.0025979718 0.049208142)
(0.20435742 -0.0025920945 0.049208075)
(0.20590299 -0.0093802895 0.049011749)
(0.2101304 -0.020436887 0.049579555)
(0.21024861 -0.046046909 0.054445537)
(0.21882523 0.044611844 0.05363951)
(0.21649987 0.02030104 0.048019545)
(0.21250135 0.0092921956 0.047378133)
(0.21111597 0.0025941074 0.047591377)
(0.21111603 -0.0025879868 0.047591298)
(0.21250152 -0.0092865247 0.047377892)
(0.21650012 -0.020296068 0.048019186)
(0.21882577 -0.044608882 0.05363898)
(0.22255394 0.042086222 0.051083936)
(0.21865181 0.019762787 0.045178818)
(0.215006 0.0089934975 0.044521681)
(0.21379296 0.0025341102 0.044714538)
(0.21379301 -0.0025278526 0.044714449)
(0.21500614 -0.0089876414 0.044521406)
(0.218652 -0.019757502 0.045178414)
(0.2225544 -0.042082736 0.051083287)
(0.22313702 0.039061508 0.047580805)
(0.21826161 0.018941424 0.041623618)
(0.21503788 0.0085802334 0.041051127)
(0.21399393 0.0024404038 0.041191619)
(0.21399397 -0.0024340758 0.041191523)
(0.21503799 -0.0085742431 0.041050829)
(0.21826176 -0.018935876 0.041623199)
(0.22313741 -0.039057542 0.04758008)
(0.036069641 0.0033661509 0.0012246157)
(0.04166484 0.0037473464 0.0013330867)
(0.039921404 0.0021970149 0.0012662521)
(0.038619264 0.00070650108 0.0012466513)
(0.038619463 -0.00070318887 0.0012466478)
(0.039922044 -0.0021940714 0.0012662442)
(0.041665898 -0.0037452334 0.0013330828)
(0.036070744 -0.0033657801 0.0012246257)
(0.095944148 0.011274447 0.0074526831)
(0.10662703 0.010536146 0.0077550958)
(0.1021308 0.0059408371 0.0074538408)
(0.099130178 0.0018763483 0.0073756769)
(0.099130627 -0.0018680461 0.0073756513)
(0.10213224 -0.0059334276 0.0074537627)
(0.10662951 -0.010530631 0.0077550445)
(0.095946962 -0.011273032 0.0074526751)
(0.14522626 0.019414957 0.015176726)
(0.15666829 0.016153246 0.01531692)
(0.15009985 0.0089016033 0.014699858)
(0.14609745 0.0027846372 0.01456454)
(0.14609803 -0.0027727467 0.014564482)
(0.1501017 -0.0088908989 0.014699663)
(0.15667158 -0.01614499 0.015316755)
(0.14523027 -0.019412245 0.015176616)
(0.18437547 0.026460994 0.022748718)
(0.19376798 0.020396532 0.022414109)
(0.18575917 0.011070743 0.021479779)
(0.18127036 0.0034449638 0.021304194)
(0.18127098 -0.0034305654 0.021304099)
(0.18576116 -0.011057659 0.021479437)
(0.19377161 -0.020386088 0.022413776)
(0.18438021 -0.026456831 0.022748419)
(0.21401022 0.03182321 0.029175803)
(0.21985683 0.023314882 0.028175242)
(0.21097652 0.012525638 0.026974434)
(0.20636138 0.0038892751 0.026775593)
(0.206362 -0.0038731612 0.026775462)
(0.21097846 -0.012510856 0.026973935)
(0.21986045 -0.02330269 0.028174713)
(0.21401528 -0.031817525 0.029175244)
(0.2350896 0.035449849 0.034070707)
(0.23691601 0.025073976 0.032344392)
(0.22764883 0.013380264 0.030960623)
(0.22314197 0.0041557998 0.030750785)
(0.22314255 -0.0041385342 0.030750623)
(0.22765063 -0.013364278 0.03095998)
(0.2369194 -0.025060383 0.032343664)
(0.23509469 -0.035442628 0.034069849)
(0.24878109 0.037552317 0.037414194)
(0.24682822 0.025855995 0.034992472)
(0.23756234 0.013751135 0.033524392)
(0.23330595 0.0042809114 0.033311509)
(0.23330648 -0.0042628895 0.033311316)
(0.23756395 -0.0137343 0.033523631)
(0.24683127 -0.025841282 0.03499156)
(0.24878599 -0.037543596 0.037413028)
(0.25623478 0.038388483 0.039343444)
(0.25122551 0.02580344 0.036269068)
(0.24224538 0.013740988 0.034847807)
(0.23832129 0.0042948653 0.034638032)
(0.23832176 -0.0042763668 0.034637806)
(0.24224679 -0.013723563 0.034846977)
(0.25122815 -0.025787838 0.036268016)
(0.25623934 -0.038378385 0.039342035)
(0.016266196 0.0014973236 5.2159905e-06)
(0.023365649 0.0028593933 9.2743456e-05)
(0.024076664 0.0019388544 9.3667042e-05)
(0.023427228 0.0006489349 8.886345e-05)
(0.023427748 -0.00064388043 8.8856239e-05)
(0.024078352 -0.0019343953 9.3656856e-05)
(0.023368321 -0.0028563287 9.2739462e-05)
(0.016268688 -0.0014969004 5.2256198e-06)
(0.05230079 0.0051241946 0.0019391697)
(0.069050074 0.0081081827 0.0024138783)
(0.069917275 0.0052936199 0.0023097293)
(0.068065161 0.0017628889 0.0022217468)
(0.068066399 -0.0017497421 0.0022216987)
(0.06992133 -0.0052819608 0.0023096246)
(0.069056788 -0.0080998489 0.0024138449)
(0.052307603 -0.0051223271 0.0019391901)
(0.089715265 0.0096781882 0.005416122)
(0.11180726 0.012889141 0.0062430487)
(0.11190921 0.00814517 0.0059510729)
(0.10901828 0.0026940576 0.0057374646)
(0.10901995 -0.0026746963 0.0057373583)
(0.11191472 -0.008127847 0.0059508098)
(0.11181675 -0.012876312 0.0062429268)
(0.089725558 -0.0096743963 0.0054160951)
(0.12629904 0.014782053 0.010083956)
(0.15001842 0.017056951 0.011089938)
(0.1488228 0.010476458 0.01053846)
(0.14511717 0.0034432474 0.01017534)
(0.14511905 -0.0034192573 0.010175166)
(0.14882903 -0.010454787 0.010537987)
(0.15002955 -0.017040347 0.011089661)
(0.12631191 -0.014776025 0.010083796)
(0.1600585 0.019892121 0.015290884)
(0.18254276 0.020467282 0.016221496)
(0.17986017 0.012275794 0.015364876)
(0.17559016 0.0040145801 0.014851844)
(0.17559207 -0.0039872348 0.014851601)
(0.17986656 -0.01225085 0.015364163)
(0.18255458 -0.020447533 0.016220996)
(0.16007305 -0.019883669 0.01529049)
(0.18946584 0.024584475 0.02050627)
(0.20884407 0.023028827 0.021103854)
(0.20473447 0.01355108 0.01991964)
(0.20014036 0.0044173934 0.019271016)
(0.20014221 -0.0043876805 0.019270709)
(0.20474064 -0.013523715 0.019918679)
(0.20885585 -0.023006468 0.021103079)
(0.18948124 -0.024573508 0.020505542)
(0.21353439 0.028593524 0.025367208)
(0.22894223 0.024695952 0.025386925)
(0.22360044 0.014332297 0.023875914)
(0.21888928 0.0046661691 0.023117934)
(0.21889099 -0.0046348367 0.023117573)
(0.22360616 -0.014303171 0.02387472)
(0.22895341 -0.024671447 0.025385848)
(0.21354995 -0.028580039 0.025366068)
(0.23174584 0.031613669 0.029378243)
(0.24328668 0.025474906 0.028716315)
(0.2369115 0.014673745 0.026938888)
(0.23225256 0.0047800169 0.026124986)
(0.23225412 -0.004747627 0.026124585)
(0.23691663 -0.014643371 0.02693751)
(0.2432969 -0.02544865 0.028714941)
(0.23176104 -0.031597816 0.029376726)
(0.014223543 0.00058782637 7.7634452e-05)
(0.020937587 0.0015840258 0.00010704926)
(0.022455104 0.0012411906 9.9774098e-05)
(0.02223913 0.00043992894 8.9376675e-05)
(0.022240101 -0.00043276693 8.936789e-05)
(0.022458164 -0.0012349844 9.9767312e-05)
(0.020942191 -0.0015799634 0.00010705507)
(0.014227552 -0.00058741953 7.7655107e-05)
(0.043888129 0.0022536474 0.00077497305)
(0.060503233 0.0048509648 0.0010558875)
(0.063925071 0.0036452665 0.0010120105)
(0.063227622 0.0012821531 0.00092212119)
(0.063229986 -0.0012632434 0.00092206304)
(0.063932639 -0.0036287688 0.0010119168)
(0.060515127 -0.0048396683 0.0010559334)
(0.043899352 -0.002251494 0.00077506431)
(0.074112739 0.0045751847 0.0022449939)
(0.097431077 0.0081534436 0.0028924223)
(0.10172625 0.0059057697 0.0027624731)
(0.10049123 0.0020601253 0.0025411984)
(0.1004945 -0.0020319239 0.0025410686)
(0.10173686 -0.0058809282 0.0027622212)
(0.097448394 -0.008135779 0.0028924796)
(0.074130135 -0.0045705161 0.0022451271)
(0.10428415 0.0074694805 0.0044774219)
(0.13146659 0.011360541 0.005494768)
(0.13576288 0.007950447 0.005219901)
(0.13396157 0.0027509116 0.0048330674)
(0.13396533 -0.0027155691 0.0048328527)
(0.13577528 -0.0079189955 0.0052194246)
(0.13148763 -0.01133738 0.005494781)
(0.10430658 -0.0074617751 0.0044775308)
(0.13361655 0.010765498 0.0073503474)
(0.16221678 0.014313984 0.0086330596)
(0.16584171 0.0097099221 0.0081512915)
(0.1634906 0.0033353326 0.0075856038)
(0.16349456 -0.0032946567 0.0075853008)
(0.16585491 -0.0096733454 0.0081505429)
(0.16224002 -0.014286143 0.0086329474)
(0.13364279 -0.010754431 0.0073503298)
(0.16119395 0.014244612 0.010674268)
(0.18926833 0.016858556 0.012038727)
(0.19175977 0.011132059 0.011294313)
(0.18891958 0.0038008947 0.010555142)
(0.18892351 -0.0037563553 0.010554755)
(0.19177298 -0.01109159 0.011293266)
(0.18929246 -0.016826769 0.012038405)
(0.1612228 -0.014230009 0.010673998)
(0.18607762 0.017664474 0.014218733)
(0.21232912 0.018861197 0.01543113)
(0.21339776 0.012190246 0.014386683)
(0.21016209 0.0041431845 0.013497715)
(0.21016583 -0.004095946 0.013497255)
(0.21341041 -0.012146886 0.014385336)
(0.21235301 -0.018826119 0.015430528)
(0.1861079 -0.017646298 0.014218088)
(0.2074294 0.020701722 0.017597105)
(0.23135251 0.020250341 0.01854706)
(0.23078175 0.012887514 0.017189521)
(0.22726772 0.0043661936 0.016204513)
(0.22727118 -0.0043171627 0.016203997)
(0.23079343 -0.012842064 0.01718791)
(0.23137524 -0.020212533 0.018546123)
(0.20746006 -0.020680162 0.017596092)
(0.011491497 0.00032889148 1.4523432e-05)
(0.018047916 0.00097591327 4.3169111e-05)
(0.02033655 0.00080411875 4.3182296e-05)
(0.020633702 0.00029048648 3.4689296e-05)
(0.020635353 -0.00028053102 3.468044e-05)
(0.020341608 -0.0007956613 4.3179159e-05)
(0.01805522 -0.00097060155 4.3182743e-05)
(0.011497614 -0.00032848662 1.4548954e-05)
(0.036243822 0.0012663217 0.00042599054)
(0.052969267 0.0030292217 0.00064344646)
(0.058560322 0.0024349949 0.00061843035)
(0.059182036 0.00088245243 0.00053184277)
(0.059186127 -0.00085604746 0.00053178091)
(0.058573075 -0.0024123609 0.00061835269)
(0.05298846 -0.0030142518 0.00064356392)
(0.036261215 -0.0012637763 0.00042611635)
(0.062087067 0.002596057 0.0012820717)
(0.086243214 0.0051785252 0.0017699364)
(0.093966017 0.0040533712 0.0016875999)
(0.094657112 0.0014648108 0.0014751428)
(0.094662856 -0.0014252665 0.0014750006)
(0.09398421 -0.0040191059 0.0016873728)
(0.086271588 -0.0051549003 0.0017701633)
(0.062114378 -0.0025902523 0.0012822851)
(0.088450867 0.0043061725 0.0025912848)
(0.11759873 0.0073738676 0.0033733794)
(0.12642341 0.0056120986 0.0031932693)
(0.12696611 0.0020178338 0.0028226887)
(0.12697285 -0.0019680741 0.002822448)
(0.12644509 -0.0055685006 0.0031928144)
(0.11763377 -0.0073426631 0.0033736798)
(0.088486538 -0.0042963271 0.0025915333)
(0.11473372 0.0063387208 0.00430886)
(0.1467642 0.0095312428 0.005347189)
(0.15581144 0.0070547703 0.0050241666)
(0.15603753 0.002521571 0.0044817698)
(0.15604474 -0.0024640911 0.0044814239)
(0.15583497 -0.0070038457 0.00502342)
(0.14680363 -0.0094935191 0.0053474839)
(0.11477607 -0.0063243398 0.0043090493)
(0.14030129 0.0086067757 0.0063688136)
(0.17348822 0.011546048 0.0075668727)
(0.18202659 0.0083271048 0.0070549595)
(0.18182219 0.0029586236 0.0063432975)
(0.18182946 -0.002895494 0.0063428494)
(0.18205064 -0.0082705553 0.0070538784)
(0.17352999 -0.011502803 0.0075670629)
(0.1403486 -0.0085875954 0.0063688138)
(0.16449796 0.010983562 0.0086686589)
(0.19758271 0.013308055 0.009880839)
(0.20500011 0.0093872477 0.0091428077)
(0.20430544 0.003316728 0.0082812141)
(0.20431248 -0.003249625 0.0082806744)
(0.20502363 -0.0093264818 0.009141374)
(0.19762501 -0.013260198 0.009880828)
(0.16454852 -0.010959525 0.008668329)
(0.1866815 0.013256019 0.010982604)
(0.21899123 0.014741689 0.012151411)
(0.224719 0.01021343 0.011157679)
(0.22352963 0.0035905241 0.010192472)
(0.22353624 -0.0035207791 0.010191857)
(0.22474123 -0.010149598 0.011155912)
(0.21903249 -0.014690002 0.012151094)
(0.1867337 -0.013227385 0.010981965)
(0.010240206 0.00018690263 1.412556e-05)
(0.016504125 0.00058012909 3.2012175e-05)
(0.01918678 0.00048961485 3.1236127e-05)
(0.019857116 0.00018051959 2.366966e-05)
(0.019859716 -0.00016676979 2.3663075e-05)
(0.019194536 -0.00047817965 3.1235296e-05)
(0.016514938 -0.00057324453 3.2030088e-05)
(0.010248989 -0.00018649453 1.4150633e-05)
(0.032331444 0.00073385194 0.00025608006)
(0.04859037 0.0018455773 0.00041326594)
(0.055412269 0.0015439018 0.00040018213)
(0.057058026 0.00057609978 0.00032793431)
(0.05706455 -0.00053959334 0.00032788155)
(0.05543206 -0.0015131758 0.00040012984)
(0.048619074 -0.001825952 0.00041345029)
(0.032356644 -0.00073080347 0.00025621254)
(0.055510195 0.0015236328 0.00077108732)
(0.079410748 0.0032170795 0.0011393482)
(0.089217691 0.0026465635 0.0010938304)
(0.091481878 0.00098912898 0.00091639729)
(0.091491152 -0.00093440946 0.00091626849)
(0.089246261 -0.0025999191 0.0010936598)
(0.0794536 -0.0031858679 0.001139748)
(0.055550094 -0.0015163818 0.0007713226)
(0.07935974 0.0025591563 0.0015703598)
(0.10880412 0.0046722009 0.0021795731)
(0.12054605 0.0037653733 0.0020747026)
(0.12310185 0.0014039465 0.0017647652)
(0.12311288 -0.0013350408 0.0017645367)
(0.12058054 -0.0037058937 0.0020743289)
(0.10885761 -0.0046307242 0.0021801822)
(0.079412319 -0.0025465863 0.0015706578)
(0.10343874 0.0038196891 0.0026358559)
(0.13660307 0.0061665949 0.0034717162)
(0.14933666 0.0048603437 0.0032759282)
(0.15189841 0.0018042068 0.0028213757)
(0.15191037 -0.0017245703 0.0028210351)
(0.14937463 -0.0047907538 0.0032752698)
(0.13666397 -0.0061162257 0.0034724638)
(0.10350177 -0.0038010773 0.0026361296)
(0.12728298 0.0052681981 0.0039369185)
(0.16265572 0.0076396192 0.0049451045)
(0.17553706 0.0058898003 0.0046251354)
(0.17786765 0.0021743206 0.0040269727)
(0.17787988 -0.0020868401 0.0040265183)
(0.17557646 -0.0058124391 0.0046241274)
(0.16272109 -0.0075817034 0.0049458825)
(0.12735412 -0.0052431537 0.0039370352)
(0.15041138 0.0068425886 0.0054225497)
(0.18685596 0.009021078 0.0065153976)
(0.1991127 0.0068165318 0.0060417475)
(0.20102912 0.002501272 0.0053142066)
(0.20104114 -0.0024083026 0.0053136451)
(0.19915189 -0.0067333547 0.0060403491)
(0.18692314 -0.0089568787 0.0065160884)
(0.15048827 -0.006811024 0.0054223588)
(0.17233846 0.0084230076 0.0069711794)
(0.20918627 0.010256401 0.0081163264)
(0.22005166 0.0076132159 0.007456911)
(0.22143377 0.0027762562 0.0066350721)
(0.22144523 -0.0026796808 0.0066344143)
(0.22008934 -0.0075258311 0.0074551153)
(0.2092529 -0.010187013 0.0081167798)
(0.17241883 -0.008385274 0.0069707397)
(0.0094030751 0.00011897182 7.2696975e-06)
(0.015445894 0.00036233138 2.0608849e-05)
(0.018372145 0.00030326471 2.0975897e-05)
(0.019313429 0.00011424477 1.5341669e-05)
(0.019317399 -9.5177646e-05 1.5341501e-05)
(0.018383726 -0.00028773702 2.0974895e-05)
(0.015461591 -0.00035339182 2.0628908e-05)
(0.0094155361 -0.0001185231 7.2886176e-06)
(0.029785401 0.00046128002 0.00015997847)
(0.045634233 0.0011620903 0.00027626195)
(0.053221757 0.00098387521 0.00027253804)
(0.055622911 0.00037856649 0.00021763322)
(0.05563295 -0.00032796712 0.00021760267)
(0.05325151 -0.00094203881 0.00027249997)
(0.045676134 -0.0011363437 0.00027648052)
(0.029821333 -0.00045750786 0.00016006648)
(0.051280192 0.00095469808 0.00048774051)
(0.074814331 0.0020445391 0.00076287749)
(0.085933934 0.0017233697 0.00074387175)
(0.089380594 0.00066682174 0.0006085198)
(0.089394976 -0.00059102561 0.00060842383)
(0.085977172 -0.0016597587 0.0007437347)
(0.074877204 -0.0020033025 0.00076336513)
(0.051337328 -0.00094547621 0.00048786309)
(0.073532968 0.0016063307 0.001000165)
(0.10286615 0.003003312 0.0014619402)
(0.11647941 0.0025032594 0.0014108561)
(0.12058466 0.00096846173 0.0011738343)
(0.12060191 -0.00087309624 0.0011736398)
(0.116532 -0.0024220661 0.0014105268)
(0.10294508 -0.0029482047 0.00146271)
(0.0736086 -0.0015901034 0.0010002619)
(0.096176565 0.002409217 0.0016883214)
(0.12967079 0.0040175161 0.0023344204)
(0.14482557 0.0032989062 0.0022305926)
(0.14923753 0.0012721143 0.0018823042)
(0.1492564 -0.001162021 0.0018819893)
(0.14488396 -0.003203876 0.00222997)
(0.12976121 -0.0039503073 0.0023354094)
(0.096267668 -0.0023849557 0.0016882968)
(0.11883052 0.0033474968 0.0025364675)
(0.15512524 0.0050547018 0.0033376727)
(0.17094306 0.0040827418 0.0031586274)
(0.17535134 0.0015662136 0.002699438)
(0.17537085 -0.0014454474 0.0026989931)
(0.17100424 -0.0039771208 0.0031576232)
(0.15522299 -0.0049771955 0.0033387709)
(0.11893389 -0.0033146312 0.0025361827)
(0.14110197 0.0043909382 0.0035178663)
(0.17916404 0.0060741367 0.0044230129)
(0.1948102 0.0048276618 0.0041474461)
(0.19895298 0.0018401121 0.0035875331)
(0.19897236 -0.0017119869 0.0035869586)
(0.19487168 -0.004714184 0.0041459972)
(0.17926535 -0.0059880748 0.0044240958)
(0.14121434 -0.0043493265 0.0035171685)
(0.16258823 0.0054724732 0.004565022)
(0.20179064 0.0070419601 0.0055579121)
(0.21641182 0.0055102946 0.005158019)
(0.22008775 0.0020852623 0.0045224439)
(0.22010642 -0.0019524294 0.0045217423)
(0.21647164 -0.0053912161 0.0051560939)
(0.2018921 -0.0069488808 0.005558805)
(0.16270645 -0.0054225778 0.0045640516)
(0.0088799813 7.96518e-05 4.6753099e-06)
(0.014745099 0.0002370434 1.4006658e-05)
(0.017801989 0.00019713133 1.4793103e-05)
(0.018923103 7.8071817e-05 1.0808949e-05)
(0.018929062 -5.1410656e-05 1.0819969e-05)
(0.017819062 -0.00017589065 1.4787334e-05)
(0.014767664 -0.0002254484 1.4023594e-05)
(0.0088974952 -7.9094704e-05 4.6796953e-06)
(0.028168812 0.00030455203 0.0001036871)
(0.043651467 0.00076199374 0.00018908718)
(0.051674383 0.00065018035 0.00019244358)
(0.054590317 0.00026285734 0.00015390073)
(0.054605463 -0.000192173 0.00015389586)
(0.051718441 -0.0005928102 0.00019236047)
(0.043711952 -0.00072823327 0.00018922662)
(0.028219544 -0.0002997676 0.0001036016)
(0.048565054 0.00062683357 0.00031883441)
(0.071700502 0.0013463636 0.00052458142)
(0.083595621 0.0011538526 0.00052622517)
(0.087865987 0.00046843823 0.00043083705)
(0.087887796 -0.00036267451 0.00043076413)
(0.08365991 -0.0010665081 0.00052597479)
(0.071791572 -0.0012918764 0.00052486085)
(0.048645996 -0.00061498412 0.00031849715)
(0.069756027 0.0010537683 0.00065840716)
(0.098800576 0.0019903028 0.0010094281)
(0.11355557 0.0016982826 0.0010000862)
(0.11876482 0.00068829018 0.00083241876)
(0.11879111 -0.00055540991 0.00083222427)
(0.11363411 -0.0015867202 0.00099954401)
(0.098915286 -0.0019170285 0.0010098328)
(0.069863506 -0.0010327293 0.00065767222)
(0.091421131 0.0015842888 0.0011188537)
(0.12486299 0.0026846129 0.0016188713)
(0.14153949 0.0022692886 0.0015853981)
(0.1473022 0.00091523085 0.0013381253)
(0.14733116 -0.00076210054 0.0013377714)
(0.14162711 -0.0021387065 0.001584435)
(0.12499487 -0.0025947974 0.0016193322)
(0.091550987 -0.0015526153 0.0011175779)
(0.11323001 0.0022122347 0.0016924216)
(0.14981356 0.0034122916 0.0023262763)
(0.16753194 0.0028499773 0.0022533176)
(0.17349822 0.0011415855 0.0019261863)
(0.17352835 -0.00097396603 0.0019256527)
(0.16762425 -0.0027049245 0.0022518247)
(0.14995668 -0.0033083249 0.0023266938)
(0.11337779 -0.0021690866 0.0016904428)
(0.13484111 0.0029228205 0.0023647444)
(0.17361019 0.0041500571 0.0031019187)
(0.19151873 0.0034224594 0.0029737219)
(0.19738123 0.0013597826 0.0025734761)
(0.19741137 -0.0011823857 0.0025727572)
(0.1916121 -0.0032667974 0.0029716255)
(0.17375917 -0.0040343218 0.003102196)
(0.13500227 -0.0028679454 0.0023619179)
(0.15590048 0.0036766899 0.0030961194)
(0.19626949 0.0048776367 0.0039281968)
(0.21348396 0.0039696492 0.0037214424)
(0.21899051 0.0015630973 0.0032650028)
(0.21901977 -0.00137969 0.0032640958)
(0.21357546 -0.0038065796 0.0037187103)
(0.1964195 -0.004752289 0.0039281897)
(0.15607059 -0.0036106643 0.0030927488)
(0.0085265157 5.7022854e-05 3.1492954e-06)
(0.014256776 0.00016750045 9.8384814e-06)
(0.017383799 0.00014229263 1.0994648e-05)
(0.018622769 6.2294325e-05 8.3524244e-06)
(0.018631812 -2.4704555e-05 8.3714774e-06)
(0.017409432 -0.00011306235 1.0955531e-05)
(0.01428985 -0.00015257246 9.8078822e-06)
(0.0085516867 -5.6243688e-05 3.0945617e-06)
(0.027075381 0.00021405109 7.0984178e-05)
(0.042263684 0.00053423705 0.00013453048)
(0.050533395 0.00046583381 0.00014261458)
(0.053793124 0.00020493807 0.00011724909)
(0.05381616 -0.00010536192 0.00011724347)
(0.050599608 -0.00038666161 0.00014231572)
(0.042352464 -0.00049020308 0.00013425822)
(0.027148438 -0.00020793499 7.0368161e-05)
(0.046724587 0.00043657646 0.00021926691)
(0.069509716 0.00094084858 0.00037474582)
(0.081860309 0.00082490759 0.00039028152)
(0.086689937 0.00036089337 0.0003272904)
(0.086723174 -0.00021207012 0.00032716815)
(0.081957001 -0.00070419118 0.00038952666)
(0.069643465 -0.00086913248 0.00037404193)
(0.04684127 -0.0004214227 0.0002175826)
(0.067186662 0.00073062811 0.00045462569)
(0.095920406 0.0013899511 0.00072378754)
(0.11136659 0.0012150875 0.00074282335)
(0.11733858 0.00052666168 0.00063164433)
(0.11737874 -0.00033996747 0.00063131548)
(0.11148482 -0.0010607784 0.00074141542)
(0.096088916 -0.0012927839 0.00072253012)
(0.067341679 -0.0007035799 0.00045150171)
(0.088169334 0.0010971601 0.0007758602)
(0.12142582 0.0018780879 0.0011654092)
(0.13904946 0.0016289822 0.0011801408)
(0.14576325 0.00069827225 0.0010154419)
(0.14580758 -0.00048353984 0.001014844)
(0.13918147 -0.0014483383 0.0011779132)
(0.12161958 -0.0017582554 0.0011635135)
(0.088356652 -0.0010562047 0.0007710539)
(0.10937312 0.001534232 0.0011792108)
(0.14597028 0.0023965281 0.0016822867)
(0.16490361 0.0020570225 0.0016823622)
(0.17198985 0.00087122639 0.0014635041)
(0.1720361 -0.00063671816 0.0014626046)
(0.16504286 -0.0018564558 0.0016792016)
(0.14618058 -0.0022571403 0.0016797065)
(0.10958627 -0.0014781346 0.0011725585)
(0.13048874 0.0020345847 0.0016568007)
(0.16952762 0.0029319517 0.0022553038)
(0.18892173 0.0024882894 0.0022289688)
(0.19604866 0.0010407788 0.0019600441)
(0.19609505 -0.00079325572 0.0019588355)
(0.18906281 -0.0022732857 0.0022248252)
(0.16974663 -0.0027762177 0.0022520542)
(0.13072114 -0.0019628922 0.0016482382)
(0.15119403 0.0025741006 0.0021844471)
(0.19212534 0.0034723918 0.0028746168)
(0.21109072 0.0029114443 0.0028023785)
(0.21797659 0.0012023616 0.0024940809)
(0.21802177 -0.00094722517 0.0024925613)
(0.2112293 -0.0026865761 0.0027972642)
(0.19234608 -0.0033032925 0.0028706854)
(0.15143927 -0.0024874774 0.0021746183)
(0.0082725932 4.3600848e-05 2.4078348e-06)
(0.013897883 0.00012911573 7.2182861e-06)
(0.017061022 0.00011773748 8.5450454e-06)
(0.018377571 6.0051594e-05 6.8697667e-06)
(0.018391351 -5.9861568e-06 6.8934666e-06)
(0.01709989 -7.677135e-05 8.4502955e-06)
(0.01394698 -0.0001098173 7.2390172e-06)
(0.0083094799 -4.2428017e-05 2.2548474e-06)
(0.026290224 0.00016019956 5.2612422e-05)
(0.041241622 0.00040602793 0.00010041175)
(0.049649983 0.00037365117 0.00011077006)
(0.053139976 0.00018688138 9.4970184e-05)
(0.053175184 -4.3907826e-05 9.4832405e-05)
(0.049750601 -0.00026250047 0.00010965171)
(0.041373589 -0.00034817368 9.8510616e-05)
(0.026397399 -0.000152523 5.0493894e-05)
(0.045402875 0.00032332552 0.00016194475)
(0.06789231 0.00070849859 0.00028054209)
(0.080511255 0.00064936462 0.00030323977)
(0.085720715 0.00031788871 0.0002639131)
(0.0857716 -0.00010462435 0.00026339869)
(0.080658243 -0.00047983182 0.00030051552)
(0.068091098 -0.00061338553 0.00027601987)
(0.045574177 -0.00030437994 0.00015629398)
(0.065339971 0.00053745812 0.00033520742)
(0.093786599 0.0010394042 0.00054314276)
(0.10965478 0.00094362748 0.00057761833)
(0.11615211 0.0004517786 0.00050792028)
(0.11621366 -0.00018488508 0.00050685421)
(0.10983443 -0.00072695268 0.00057286749)
(0.094036868 -0.00090962191 0.0005357172)
(0.065567462 -0.0005033782 0.00032499109)
(0.085827912 0.00080379924 0.00057172478)
(0.1188668 0.001397697 0.00087671188)
(0.13708597 0.0012532394 0.00091880701)
(0.14446454 0.00058697403 0.00081504191)
(0.14453253 -0.00028086147 0.000813331)
(0.13728641 -0.00099975957 0.00091185154)
(0.11915421 -0.001236728 0.00086638769)
(0.086102454 -0.00075175044 0.00055646189)
(0.10658751 0.0011219125 0.00086930445)
(0.14308965 0.0017788173 0.001269122)
(0.16280706 0.0015734123 0.0013120744)
(0.1706886 0.00072144907 0.0011734861)
(0.17075958 -0.00038822103 0.0011711079)
(0.1630183 -0.0012923273 0.0013029274)
(0.14340112 -0.0015907259 0.0012561037)
(0.10689932 -0.0010500297 0.00084890012)
(0.12733095 0.0014879574 0.0012231572)
(0.16644039 0.0021749846 0.0017071874)
(0.18681684 0.0018981293 0.0017423637)
(0.19485712 0.00085281503 0.0015712396)
(0.19492835 -0.00050236261 0.0015682252)
(0.18703066 -0.0015973578 0.0017311834)
(0.16676423 -0.0019641137 0.001691883)
(0.12767015 -0.0013954015 0.0011978583)
(0.14775785 0.0018861594 0.0016175856)
(0.18895538 0.0025792181 0.0021853734)
(0.2091063 0.0022205671 0.0021967678)
(0.21700699 0.00097852277 0.0019994184)
(0.21707639 -0.00061872774 0.0019958249)
(0.20931619 -0.0019067367 0.0021838594)
(0.1892813 -0.0023497069 0.0021682796)
(0.14811489 -0.0017736651 0.0015889493)
(0.0080682094 3.5577055e-05 2.5493021e-06)
(0.013612383 0.00010854904 5.8380707e-06)
(0.016797864 0.00011119621 7.0287803e-06)
(0.018170289 6.756403e-05 5.9277325e-06)
(0.018192632 1.1091224e-05 5.879845e-06)
(0.016862565 -5.226751e-05 6.4235447e-06)
(0.013703171 -8.1020605e-05 3.7305782e-06)
(0.0081297252 -3.3894378e-05 1.6663826e-06)
(0.025665822 0.00012682811 4.5215193e-05)
(0.040432576 0.00033608069 8.0238688e-05)
(0.048930116 0.00033837255 9.0012172e-05)
(0.052586051 0.00019814432 8.0283822e-05)
(0.05264294 9.7155155e-06 7.9658157e-05)
(0.049095759 -0.00017808496 8.6144633e-05)
(0.040648144 -0.00024958473 7.1185795e-05)
(0.025841183 -0.0001123914 3.8319557e-05)
(0.044360693 0.0002532296 0.00013516711)
(0.06661604 0.00057914406 0.00022337345)
(0.079411016 0.00057098103 0.00024602509)
(0.084894562 0.00032300301 0.00022194754)
(0.084976425 -1.3596231e-05 0.00022023333)
(0.079650164 -0.00032834064 0.00023736025)
(0.066931719 -0.00044377661 0.00020766731)
(0.044637727 -0.00022570017 0.00011895949)
(0.063894131 0.00041776958 0.00027477738)
(0.092106269 0.00083976007 0.00043147501)
(0.10825546 0.00080949653 0.00046835261)
(0.11513286 0.00044246376 0.00042569908)
(0.1152314 -5.6288093e-05 0.00042262216)
(0.1085445 -0.00050067246 0.00045441767)
(0.092498098 -0.00065891722 0.00040839075)
(0.064257844 -0.00037226746 0.00024666411)
(0.084005174 0.00062111656 0.00046247897)
(0.11685324 0.0011175871 0.00069544015)
(0.13547432 0.0010532731 0.00074491982)
(0.14333592 0.00055680225 0.00068129477)
(0.14344421 -0.00011528119 0.00067676604)
(0.13579355 -0.00069316203 0.0007258574)
(0.11729875 -0.00089554272 0.00066495138)
(0.084439052 -0.00055390769 0.00042163506)
(0.10442813 0.00086312201 0.00069614216)
(0.14082174 0.0014100514 0.0010059278)
(0.16107521 0.0013006353 0.0010640499)
(0.16953817 0.00066598255 0.00097884658)
(0.16965061 -0.00018707672 0.00097291809)
(0.16140857 -0.00090248624 0.0010403548)
(0.14130051 -0.0011518817 0.00096874117)
(0.10491527 -0.00077152887 0.00064297762)
(0.12488951 0.0011413724 0.00097217927)
(0.16400469 0.0017124316 0.0013530508)
(0.18506171 0.0015489769 0.0014139497)
(0.19377505 0.00076960063 0.0013084542)
(0.19388726 -0.00026793898 0.0013012787)
(0.18539637 -0.0011241936 0.0013863456)
(0.16449871 -0.0014237129 0.0013104541)
(0.12541345 -0.0010239045 0.00090797145)
(0.14510369 0.0014445971 0.0012791194)
(0.18644491 0.0020208036 0.0017336999)
(0.20742855 0.0017948779 0.0017848392)
(0.21608442 0.00086692085 0.0016626016)
(0.21619315 -0.00035410412 0.0016543767)
(0.20775463 -0.0013530099 0.0017542632)
(0.1869386 -0.001706926 0.001687237)
(0.14564908 -0.0013018748 0.0012074924)
(0.007880391 3.2495366e-05 3.3641299e-06)
(0.013366752 0.00010635386 5.1952582e-06)
(0.016573585 0.00012127915 5.9776254e-06)
(0.01799179 8.6860195e-05 5.2135399e-06)
(0.018026212 3.515258e-05 4.8783909e-06)
(0.016674238 -2.3296553e-05 8.7579341e-06)
(0.01351504 -6.071887e-05 6.3435438e-06)
(0.0079912896 -3.1700739e-05 -1.132718e-07)
(0.025103697 0.00010787673 4.9147412e-05)
(0.039743032 0.00032027384 7.1368469e-05)
(0.048317647 0.00035223578 7.6909242e-05)
(0.05210791 0.0002425128 6.959109e-05)
(0.052197939 7.7868977e-05 6.5716052e-05)
(0.048581676 -7.9920066e-05 5.4181527e-05)
(0.040083942 -0.0001095308 6.3588903e-05)
(0.025413037 -2.20982e-05 3.0683736e-05)
(0.043440009 0.00021396246 0.0001403625)
(0.065535875 0.00053910985 0.00019604657)
(0.078475504 0.00057314108 0.00020965224)
(0.084178581 0.00037981213 0.00019161853)
(0.084308849 9.1875954e-05 0.00018315394)
(0.078855789 -0.00018838917 0.00016120154)
(0.066031372 -0.00028200238 0.00016659778)
(0.043917909 -0.00012687904 0.00010214209)
(0.062638151 0.00035145212 0.00027472498)
(0.090692647 0.00076365833 0.0003746511)
(0.10706522 0.0007858082 0.00039826752)
(0.1142441 0.00050067334 0.00036662173)
(0.11440098 8.2439174e-05 0.00035381717)
(0.10752266 -0.00031223891 0.00033262758)
(0.09130444 -0.00045888824 0.00032214578)
(0.063252651 -0.00025150956 0.00020601445)