/*--------------------------------*- C++ -*----------------------------------*\
  =========                 |
  \\      /  F ield         | OpenFOAM: The Open Source CFD Toolbox
   \\    /   O peration     | Website:  https://openfoam.org
    \\  /    A nd           | Version:  13
     \\/     M anipulation  |
\*---------------------------------------------------------------------------*/
FoamFile
{
    format      ascii;
    class       volScalarField;
    location    "0.12";
    object      alpha.water;
}
// * * * * * * * * * * * * * * * * * * * * * * * * * * * * * * * * * * * * * //

dimensions      [];

internalField   nonuniform List<scalar> 
51200
(
0
0
0
0
0
0
0
0
0
0
0
0
0
0
0
0
0
0
0
0
0
0
0
0
0
0
0
0
0
0
0
0
0
0
0
0
0
0
0
0
0
0
0
0
0
0
0
0
0
0
0
0
0
0
0
0
0
0
0
0
0
0
0
0
0
0
0
0
0
0
0
0
0
0
0
0
0
0
0
0
0
0
0
0
0
0
0
0
0
0
0
0
0
0
0
0
0
0
0
0
0
0
0
0
0
0
0
0
0
0
0
0
0
0
0
0
0
0
0
0
0
0
0
0
0
0
0
0
0
0
0
0
0
0
0
0
0
0
0
0
0
0
0
0
0
0
0
0
0
0
0
0
0
0
0
0
0
0
0
0
0
0
0
0
0
0
0
0
0
0
0
0
0
0
0
0
0
0
0
0
0
0
0
0
0
0
0
0
0
0
0
0
0
0
0
0
0
0
0
0
0
0
0
0
0
0
0
0
0
0
0
0
0
0
0
0
0
0
0
0
0
0
0
0
0
0
0
0
0
0
0
0
0
0
0
0
0
0
0
0
0
0
0
0
0
0
0
0
0
0
0
0
0
0
0
0
0
0
0
0
0
0
0
0
0
0
0
0
0
0
0
0
0
0
0
0
0
0
0
0
0
0
0
0
0
0
0
0
0
0
0
0
0
0
0
0
0
0
0
0
0
0
0
0
0
0
0
0
0
0
0
0
0
0
0
0
0
0
0
0
0
0
0
0
0
0
0
0
0
0
0
0
0
0
0
0
0
0
0
0
0
0
0
0
0
0
0
0
0
0
0
0
0
0
0
0
0
0
0
0
0
0
0
0
0
0
0
0
0
0
0
0
0
0
0
0
0
0
0
0
0
0
0
0
0
0
0
0
0
0
0
0
0
0
0
0
0
0
0
0
0
0
0
0
0
0
0
0
0
0
0
0
0
0
0
0
0
0
0
0
0
0
0
0
0
0
0
0
0
0
0
0
0
0
0
0
0
0
0
0
0
0
0
0
0
0
0
0
0
0
0
0
0
0
0
0
0
0
0
0
0
0
0
0
0
0
0
0
0
0
0
0
0
0
0
0
0
0
0
0
0
0
0
0
0
0
0
0
0
0
0
0
0
0
0
0
0
0
0
0
0
0
0
0
0
0
0
0
0
0
0
0
1.6465377e-28
0
-6.7439043e-55
-2.5825014e-60
5.7431171e-77
1.0961377e-45
-4.4366577e-50
9.3164363e-29
9.742895e-31
1.3926375e-51
6.6813559e-45
3.06088e-51
2.0130074e-50
4.9697836e-54
1.1192376e-43
9.0857754e-30
1.1519657e-46
1.7366649e-37
1.5107791e-43
1.7395793e-48
7.008492e-44
1.6734158e-42
1.2265468e-34
3.9736772e-31
3.6712486e-45
1.713308e-39
2.8591173e-43
2.0269172e-49
3.7751453e-48
2.3942183e-41
3.1371007e-36
2.7026466e-34
5.9224541e-50
1.2577767e-45
8.251149e-45
6.1909528e-51
3.2679351e-47
4.2063853e-42
1.1206281e-39
3.7041651e-46
1.3233712e-50
2.1461788e-51
4.7904291e-47
2.2389704e-49
9.972992e-47
6.248251e-44
3.1586586e-51
2.0725721e-48
2.5583971e-53
2.1406294e-54
1.515004e-52
4.9911128e-51
3.9973275e-48
2.555051e-49
1.1104075e-52
2.1971827e-48
3.4589851e-57
3.6359295e-56
3.500462e-71
9.8110219e-54
1.7059152e-51
-2.4376844e-66
4.2155166e-51
7.1894815e-54
1.9886929e-18
2.3528562e-19
8.0223419e-17
9.8992494e-16
4.5623039e-17
4.3490713e-42
4.3489758e-42
2.4188856e-37
1.2135473e-20
1.3403865e-21
4.2233222e-19
4.1910321e-18
1.9286116e-19
4.3489758e-42
7.2457201e-42
2.2626321e-37
9.7425189e-24
2.5567647e-26
5.2341208e-27
2.7189907e-26
2.7655563e-31
2.003056e-41
4.9290362e-41
8.9829423e-34
2.293332e-26
5.761807e-28
1.8507269e-29
4.6544736e-30
3.9144003e-31
2.9339363e-41
6.8326424e-40
2.2943848e-30
1.6782453e-38
1.4614101e-31
1.75698e-36
8.6132555e-34
9.8837846e-42
4.2669614e-42
3.3316557e-34
2.1590403e-31
2.7281329e-37
1.3742729e-39
6.0072935e-38
6.5937969e-37
3.2892161e-40
3.6054642e-39
2.9846617e-35
1.2861065e-33
5.054739e-41
7.1515837e-43
3.9749561e-41
6.7458998e-39
3.0347873e-44
7.1324573e-40
1.7198194e-37
2.674152e-39
1.8903269e-47
9.8934821e-52
5.6498935e-43
3.5967471e-42
1.8772014e-43
2.4594971e-41
5.5425589e-46
3.6752446e-45
3.7849335e-18
2.0596268e-16
5.0775892e-15
1.1300358e-12
9.4252584e-14
1.0271505e-11
4.3489758e-42
1.8810793e-10
3.1835174e-20
1.832413e-18
2.3169105e-17
4.1760157e-15
6.622577e-16
4.3575402e-14
3.9962707e-34
7.1207192e-13
1.2465697e-21
2.5136797e-23
4.4461057e-24
7.7813143e-22
1.7638547e-23
3.8968035e-22
2.7145666e-17
4.273311e-28
1.6151091e-23
8.3593031e-30
1.9376051e-29
4.185322e-27
1.1873386e-27
7.9478889e-21
1.7923853e-18
1.3464819e-30
7.7121442e-27
2.3439677e-33
5.6125692e-33
1.1225347e-30
1.6059287e-27
1.0815813e-22
5.4110105e-21
1.1159503e-31
8.3782676e-34
7.7639431e-34
4.2860948e-36
5.3725909e-34
2.8727785e-29
1.8679319e-28
1.7095856e-33
1.3763673e-33
2.677744e-37
2.2699331e-35
3.6973393e-39
1.4809481e-37
1.1075758e-34
1.3522579e-32
2.8715649e-34
4.1981888e-37
4.5945713e-36
4.8293191e-39
3.3525191e-41
2.9070457e-40
3.1118522e-39
8.901202e-36
4.6148036e-37
9.0443852e-37
1.1138353e-18
1.2459912e-16
8.0041109e-14
9.9064313e-12
8.7373203e-16
1.3025642e-10
2.4282652e-09
1.0661456e-09
2.1167167e-20
3.1654064e-18
3.4263972e-16
3.9210375e-14
8.7305966e-16
6.5148447e-13
1.9319152e-11
3.6390328e-12
5.7624402e-19
7.4238278e-22
1.3713735e-24
1.3955262e-22
7.3941619e-18
3.5172487e-20
8.8041221e-18
3.6656347e-21
2.1227693e-19
4.3997391e-22
9.6836861e-28
6.4213495e-25
1.0168887e-25
3.2706506e-20
6.4046032e-18
5.6533765e-22
1.9827285e-21
1.5403959e-23
2.7911685e-28
6.5949595e-30
3.3151079e-27
7.2859153e-22
1.1069276e-20
3.2773138e-23
7.1767929e-29
1.4915974e-26
4.226962e-29
1.8917435e-33
4.6404703e-29
7.3883515e-26
1.1624542e-25
1.2482915e-26
1.7212623e-32
1.3567329e-33
3.6360273e-31
1.425016e-35
9.5745371e-32
1.9990816e-31
4.8088786e-29
8.7366247e-34
2.3506591e-36
1.0734471e-38
1.0333828e-37
1.8082078e-39
1.1953372e-37
2.9506422e-34
2.1754521e-32
1.2155615e-36
1.7974728e-19
1.7974728e-19
1.0964516e-12
2.1475683e-11
1.226282e-11
2.5600569e-11
1.6863178e-07
1.0620728e-11
1.2093414e-11
2.2146324e-19
4.0126066e-15
1.5274273e-13
1.4592546e-13
2.0522618e-12
3.3324405e-10
1.0619219e-11
2.9476838e-13
1.9054944e-17
3.0149956e-23
4.2638973e-22
3.2506098e-18
1.8860997e-14
1.0632472e-17
7.8743274e-14
4.132329e-17
3.2025025e-19
1.0110688e-23
4.9169526e-26
1.2091358e-25
4.0681215e-21
9.7115208e-18
2.3739147e-22
9.9837619e-22
4.7861213e-23
1.6700839e-25
1.7366423e-29
3.8257306e-27
6.5303384e-22
7.4931896e-20
9.0222003e-25
2.7219496e-27
1.3560531e-26
8.2833673e-29
6.9410068e-32
4.5825888e-29
6.0517453e-24
5.7198962e-27
7.4340071e-27
7.4230311e-32
3.5749223e-33
2.7639337e-31
1.2283846e-35
8.3265409e-31
2.6511747e-30
1.4553975e-30
1.5566624e-28
2.7392626e-33
1.0776524e-34
5.8387421e-37
5.6192968e-37
1.1515378e-34
3.9840274e-34
4.292809e-33
2.3817997e-34
1.9961004e-07
2.2146324e-19
1.6003853e-12
9.2950471e-12
2.9818596e-09
2.4787673e-14
3.0546239e-07
1.7432346e-07
8.0627853e-10
9.0123553e-12
1.7875658e-14
2.0645143e-13
7.9162457e-12
2.2311226e-14
2.163402e-09
2.2414882e-11
3.0953031e-13
6.6380836e-14
2.3172069e-17
2.2716819e-17
2.2834145e-20
2.2310854e-14
1.4350462e-17
1.3173082e-13
2.8143145e-17
2.6819968e-21
2.0390492e-24
2.0950184e-25
8.7019299e-23
6.6688206e-17
1.0609613e-17
6.0722492e-16
4.1189335e-21
2.7561202e-22
1.0067601e-24
1.5425072e-27
5.9194771e-28
5.8597086e-24
1.1583804e-19
1.0834689e-24
3.1893011e-28
1.9769129e-24
1.6883762e-26
2.6724324e-32
1.966116e-30
3.4789461e-24
1.5040562e-24
1.7713838e-26
1.4290993e-30
4.0224657e-30
1.898014e-31
9.6022255e-33
1.511172e-30
1.8822784e-26
1.7863191e-28
1.0395461e-31
4.2525366e-32
1.4256511e-33
1.3799379e-35
1.4386935e-34
2.0036536e-32
5.2793187e-33
5.1841147e-32
8.1175759e-34
2.4053843e-07
1.0217269e-07
8.5116501e-10
3.6880621e-13
1.1810387e-08
2.8229999e-06
3.0022803e-07
5.408159e-07
5.1328827e-10
3.3122868e-10
5.2720331e-12
3.6857678e-13
8.6008843e-11
8.2959029e-09
1.4834219e-09
8.9267248e-11
2.8696773e-13
1.8574436e-14
1.3902148e-19
4.4420206e-15
2.484712e-19
3.5600612e-17
1.9597425e-14
2.6920917e-13
6.0598816e-16
5.6553514e-18
1.0380415e-22
3.7997837e-19
2.6163473e-23
4.8946633e-17
1.4775564e-17
1.560204e-15
6.6575686e-19
7.3788041e-20
9.7034451e-23
1.2291345e-26
3.0857671e-27
2.5370421e-19
5.3392796e-20
8.1844574e-24
3.9589545e-26
3.5362586e-23
1.6536691e-24
6.5716031e-30
1.6490442e-29
1.8231675e-26
5.0364242e-24
1.92462e-27
1.3046954e-29
4.167404e-30
7.8548964e-29
6.5396066e-33
1.5464152e-29
3.5795154e-27
9.1642531e-28
7.2452335e-30
1.3411977e-31
1.5900791e-32
3.1940185e-34
8.8257203e-34
2.6473202e-31
7.5073027e-30
2.5007956e-31
3.5386688e-34
3.6952485e-07
1.6945744e-07
7.4345425e-10
2.1501289e-08
6.8539658e-11
4.6878785e-06
1.7398388e-07
5.694666e-07
1.2145711e-09
1.5506296e-09
3.312556e-11
3.2530102e-11
6.8541654e-11
1.0010416e-07
2.0955864e-09
1.0069274e-09
2.673085e-16
1.8061068e-17
9.7957761e-15
9.953529e-15
1.6309053e-14
2.3918395e-16
1.3151484e-13
8.4117106e-13
4.8394822e-16
1.1363732e-17
9.7798792e-22
3.6785222e-19
3.7194972e-23
3.8414692e-19
6.0942452e-18
1.4025621e-15
8.2627216e-18
4.0146884e-19
7.9636064e-22
2.5465441e-26
6.2078212e-25
1.3542713e-19
6.6654492e-21
3.1143057e-20
8.2438242e-22
4.1483073e-22
1.9772035e-23
8.290809e-27
1.9737576e-26
3.8393889e-22
2.6848359e-24
2.9168752e-27
6.9543525e-28
6.6568462e-29
2.7561463e-27
1.280776e-28
2.8063797e-28
1.4922884e-27
2.0420332e-27
6.9824313e-31
1.2958297e-29
2.0931962e-31
5.278452e-33
3.5616041e-34
1.2437195e-31
1.5354865e-29
1.8259556e-30
6.5484578e-34
1.1066884e-05
1.6487164e-07
1.8424429e-11
1.7642914e-07
1.7077581e-06
4.68834e-06
1.5716225e-08
2.2403302e-07
1.077151e-12
1.6753677e-09
1.3306576e-10
9.2605903e-11
1.4494835e-15
1.9317355e-07
3.7735854e-09
6.7442113e-09
7.3063075e-16
2.2877419e-17
1.8949238e-12
4.4472711e-14
1.4254861e-15
3.8783096e-16
2.20907e-11
5.1135722e-12
2.2877419e-17
1.4626773e-17
7.5275076e-19
3.1340288e-19
1.0470634e-20
1.5329704e-17
2.1996817e-19
3.5379146e-16
1.1091361e-14
5.0851111e-16
4.5761435e-19
3.7241459e-24
2.6730394e-23
7.4102198e-20
4.4658615e-23
5.9157631e-20
1.484657e-15
6.1425365e-17
3.5480722e-20
2.707927e-26
1.6809942e-25
1.539978e-22
1.4843358e-25
1.6874373e-23
1.9734705e-17
6.9228037e-19
1.7844233e-21
5.727168e-28
5.3928405e-28
2.4487446e-25
7.4256851e-28
3.5951085e-31
4.6447358e-21
2.276924e-23
8.053066e-24
7.0111447e-27
3.6894346e-33
8.4607092e-29
6.8401351e-29
5.6385232e-32
1.9589785e-05
1.7233304e-07
1.3592703e-11
3.8040283e-07
2.3472702e-05
2.5945562e-06
1.7535414e-10
1.6475475e-10
5.2523591e-07
1.2365076e-08
1.1856955e-10
2.0370263e-09
5.9745336e-07
1.6427291e-07
1.8589292e-08
1.0955804e-08
4.76816e-08
4.4045288e-11
4.1771335e-12
9.7035515e-16
2.7015651e-13
6.3878771e-16
2.1817566e-11
4.460866e-11
1.095736e-10
6.7902051e-12
6.7512835e-15
3.8154051e-19
6.3289211e-18
6.3446588e-16
8.1454439e-16
1.1137826e-20
1.6943861e-13
1.6650732e-13
2.9050241e-15
1.6434782e-19
1.2658486e-21
3.1553765e-18
2.0260261e-19
4.8811301e-19
1.0848723e-14
6.2584921e-16
6.6889366e-17
2.8737934e-20
5.7236825e-25
1.5884354e-24
5.7921657e-26
7.0622029e-21
2.2315803e-16
7.1678418e-18
1.3662091e-20
3.2645093e-22
1.7415401e-28
1.0008342e-24
4.4701933e-26
8.8203227e-27
4.290379e-19
8.622131e-21
7.1814777e-24
5.1120897e-28
5.0523756e-31
1.4635601e-26
2.055974e-27
5.2785552e-32
1.1414024e-05
5.4711893e-07
1.2448254e-11
3.8273427e-07
3.2502131e-05
2.7320799e-06
2.4808382e-07
4.6116048e-07
4.4796605e-06
8.8047844e-09
1.23007e-11
8.3232552e-09
2.7405989e-06
1.5350153e-07
1.4818518e-08
6.1962694e-10
5.2720224e-07
1.0327272e-09
3.4658471e-12
3.9806652e-17
3.250356e-14
2.0890525e-15
7.9431488e-16
3.925648e-11
6.9453894e-10
2.64494e-11
5.7621126e-14
2.5393482e-19
8.0717976e-17
3.5202268e-15
9.131516e-16
6.5579478e-21
2.7803428e-12
4.7098271e-13
2.9078249e-15
1.4665903e-19
5.5869533e-20
3.3337666e-17
5.2556015e-18
2.9343425e-17
1.0079516e-13
5.8422794e-15
5.9504788e-17
1.581095e-20
3.5210827e-23
1.2189551e-23
1.6881962e-25
7.1674435e-19
4.3377028e-15
1.4706438e-16
1.5357724e-19
3.245854e-22
1.2552887e-26
1.6937537e-24
2.9970869e-26
6.1561257e-23
5.1458838e-17
1.0487389e-18
1.7717893e-22
9.1502156e-25
4.9770449e-29
1.6683724e-26
2.7842582e-27
4.6303517e-30
3.5688487e-06
1.2038454e-06
1.0636454e-08
2.4849144e-07
3.2502372e-05
4.9647137e-06
4.5164174e-06
2.7500063e-05
1.3094696e-05
1.9031905e-11
1.4287711e-10
1.1061766e-08
4.3139082e-06
1.8833879e-07
7.9435945e-16
4.0800409e-14
7.7751753e-10
1.4190674e-09
1.3255185e-12
1.7395124e-12
5.3254111e-14
7.9431488e-16
6.1706356e-16
1.4208297e-17
9.7976512e-10
3.4429214e-12
4.5287035e-14
7.9884892e-20
3.6558158e-17
5.9382406e-15
7.3384706e-16
1.7630596e-19
2.5289374e-11
8.7718162e-13
2.2189728e-15
6.7049809e-20
1.8656525e-19
3.2743966e-17
4.1379795e-18
4.6219424e-19
1.4784084e-12
3.4663406e-14
8.0372811e-17
2.9405346e-21
1.1047493e-22
3.1436148e-21
3.8496758e-22
4.6287512e-19
4.1161574e-14
1.1227964e-15
1.8876577e-18
2.3395104e-22
5.3294368e-26
2.4156187e-24
2.9319499e-25
2.6352777e-20
2.9899222e-16
7.3476199e-18
8.2791149e-21
1.0924323e-23
1.3190238e-28
4.2473497e-27
1.3608842e-26
3.6707979e-22
2.023976e-06
1.004719e-06
9.5520625e-09
3.7512405e-08
3.250237e-05
6.8489674e-06
7.2391835e-06
3.9324355e-05
1.1372311e-05
4.6246514e-13
1.5765344e-10
9.2514297e-10
1.1232389e-05
6.2868855e-07
5.8932484e-16
1.2904219e-05
7.7523354e-10
1.9081162e-09
3.8158411e-13
1.4104645e-11
8.6082667e-09
5.8915057e-16
9.3300335e-17
5.5605261e-16
7.7218708e-10
2.3899808e-14
2.3880009e-14
2.5992314e-13
1.9549655e-15
4.7537374e-13
9.1617412e-18
7.7448604e-16
1.7044097e-10
2.6234794e-12
2.4485531e-15
5.6705447e-17
1.4628535e-18
8.6443656e-16
9.1274334e-18
1.7317987e-16
4.3492198e-12
1.085946e-13
2.2970223e-16
4.6605624e-22
1.2579357e-21
2.067317e-19
1.4939077e-23
2.7248794e-18
1.058733e-13
2.9810347e-15
1.8502292e-17
3.576943e-22
1.2326919e-24
1.8323253e-22
1.4870167e-23
1.1533052e-21
6.7544934e-16
1.5986952e-17
1.2223131e-19
4.3570321e-23
6.0695472e-27
6.3310037e-26
5.8766957e-25
1.9382317e-21
1.8353667e-06
2.4505484e-07
1.1655789e-09
8.8199511e-11
3.2290625e-05
7.1368192e-06
1.216205e-05
3.9324218e-05
3.7806134e-06
3.1613638e-13
8.7396867e-11
8.7323098e-11
2.4798275e-05
2.4841005e-06
9.1989608e-11
3.9324189e-05
7.7325273e-09
1.9115964e-09
1.6773392e-13
3.5931436e-10
2.6292824e-06
1.8594666e-07
8.564522e-09
1.5517565e-05
2.5665683e-12
2.8308689e-12
3.9159366e-13
2.3875362e-11
5.2146796e-13
9.2287488e-14
1.9417821e-11
4.020498e-07
3.7610211e-11
4.1288616e-12
1.5046664e-14
1.4085184e-14
1.4384947e-15
1.8197091e-13
9.1618573e-18
2.1027601e-14
1.3331536e-11
3.3718543e-13
5.3462034e-16
1.7768089e-21
9.6268239e-18
1.5925718e-15
1.0876417e-15
2.7824393e-17
2.5308945e-13
7.471381e-15
4.056337e-17
3.9490107e-23
1.7539163e-21
3.1673014e-20
4.5181738e-17
4.5758326e-20
7.0514007e-16
2.4268151e-17
4.4140572e-19
6.457907e-23
1.2215029e-24
2.6893326e-22
8.561111e-20
1.9501934e-21
1.9332994e-06
3.1613638e-13
9.4255761e-12
3.7461268e-07
8.8834279e-06
2.8908416e-06
1.6608874e-05
2.1491532e-05
1.3820791e-07
3.1613638e-13
6.7400521e-12
1.1781955e-08
2.4790158e-05
4.7970335e-06
2.0849366e-09
3.9306187e-05
8.593837e-08
3.3132197e-11
1.6592441e-13
5.8454823e-14
1.5644823e-06
2.7857442e-07
4.569973e-08
3.9290195e-05
2.2147209e-12
6.1894888e-12
2.253013e-13
6.9377984e-17
7.032887e-15
9.8024058e-16
3.2958296e-09
1.3387751e-05
2.4209122e-12
4.9785629e-12
2.295494e-14
4.9526666e-20
1.0138682e-17
6.1720431e-18
5.9749872e-10
4.0967137e-12
3.8053005e-11
8.749756e-13
1.5077699e-15
5.0704936e-23
4.6447078e-20
8.5200513e-21
1.4053219e-11
7.9589742e-14
1.670576e-12
2.7556707e-14
2.0457334e-16
4.9728209e-24
8.8393111e-21
4.9261382e-23
1.0709506e-20
7.3772711e-16
1.16509e-15
5.5788442e-17
1.1435007e-17
4.5903412e-24
3.8855331e-24
3.0183642e-23
4.9202782e-23
1.642987e-17
1.8006445e-06
1.8472091e-12
1.2017009e-08
1.349983e-07
6.2348989e-07
1.6428638e-06
1.3402985e-05
3.497636e-06
2.7341803e-08
1.5069057e-09
2.7963875e-09
4.9552306e-07
2.4780227e-05
1.0894447e-05
1.8289003e-07
2.8982693e-05
4.0951098e-07
6.083038e-14
1.1558451e-13
6.9949621e-07
1.7342364e-05
2.4588721e-06
2.4154477e-07
3.5953933e-05
2.1357192e-12
2.0849009e-12
1.2329183e-13
1.5553451e-07
3.767889e-06
4.1748481e-07
3.3549093e-08
3.885197e-07
4.0411818e-10
1.6174791e-11
1.618148e-14
3.4925058e-09
9.3583067e-08
9.8280275e-16
9.6421653e-14
7.7569342e-12
1.123914e-10
4.5690235e-12
1.7517955e-14
9.178965e-13
6.2421681e-14
6.1018459e-18
2.5697936e-16
1.4993113e-11
1.6331137e-12
1.8655719e-13
7.7909962e-16
7.0968979e-23
2.7064814e-20
8.7038971e-21
9.2498104e-19
2.8867902e-14
1.3720723e-16
3.6976393e-16
3.5852076e-20
4.9781825e-24
1.3339431e-22
4.0929532e-23
5.9204471e-21
1.1038906e-16
1.9919118e-06
3.3783444e-12
3.6291211e-12
4.2352394e-07
1.3046712e-05
4.6922031e-06
2.6307542e-06
2.2961336e-06
6.2279668e-08
1.0647075e-08
2.2199484e-12
5.5181757e-08
1.042936e-05
8.5358524e-06
2.6429024e-06
1.8999396e-05
6.8912852e-07
5.8225664e-14
6.0830394e-14
4.3390572e-12
3.4633738e-05
2.5200341e-05
2.0579077e-06
2.4686406e-05
8.7556462e-09
4.5713394e-14
3.4796383e-14
8.7547835e-13
3.5336393e-05
1.885842e-05
8.376013e-07
9.9226486e-13
7.3571228e-10
1.0230989e-13
6.0252847e-15
3.7349857e-14
1.0237755e-05
3.7036661e-06
4.7048717e-08
1.251392e-13
9.1623496e-11
1.3349883e-15
5.997459e-16
6.0252847e-15
6.2600449e-09
5.2263727e-13
7.9294657e-14
8.4534456e-16
6.9936807e-13
1.1855801e-15
2.5852229e-16
3.4173376e-16
7.698004e-14
1.7910253e-15
2.5697506e-16
1.1726015e-17
2.6677309e-20
6.9433712e-19
8.487938e-19
4.5966559e-18
6.8982502e-10
8.0037587e-18
9.2498105e-19
2.1243331e-19
1.1450479e-06
3.6291211e-12
3.831003e-06
7.5015025e-05
2.4843381e-05
1.0192106e-06
1.0192106e-06
2.1730759e-06
1.0073691e-07
2.7129231e-10
6.860199e-06
6.192204e-05
1.1312161e-05
4.1274369e-06
1.2249261e-06
1.2556171e-05
3.9975982e-07
6.0830666e-14
7.7921451e-06
0.00010592326
2.9988334e-05
1.8024213e-05
1.5186429e-06
1.549601e-05
1.594066e-11
5.8228558e-14
4.3147917e-06
8.7361364e-05
4.8919863e-05
1.4722264e-05
2.1195071e-10
3.1197169e-11
2.8716997e-11
1.1528316e-13
5.0379732e-06
4.0644601e-05
2.0228325e-05
1.1806425e-05
1.7470649e-07
8.7810291e-11
2.0127562e-11
1.0839151e-08
3.1552924e-06
6.6189859e-06
5.0371661e-07
1.2055121e-05
2.2661008e-06
3.5696513e-08
5.2123308e-15
1.3352578e-15
8.5996186e-07
2.8520455e-06
4.4514733e-10
2.3287294e-05
1.6728374e-05
2.9026617e-06
5.9376525e-19
7.5891802e-16
2.9111409e-07
2.4882168e-06
7.4394301e-10
3.1209809e-05
1.4972734e-05
3.2337504e-08
8.1777861e-07
2.827045e-06
2.598e-05
2.491418e-05
1.209831e-05
1.2131853e-05
1.9636089e-06
1.8271851e-06
1.02108e-07
4.4099753e-06
2.0758429e-05
5.1472211e-05
4.0698909e-06
1.2344024e-06
1.2316694e-06
9.0449604e-06
3.8046623e-07
2.8707697e-09
7.320244e-06
0.00010533986
1.2666313e-05
1.2836807e-05
2.9149578e-06
1.5121058e-05
1.1777022e-07
2.9773636e-09
5.0406379e-05
6.8923522e-05
4.322387e-05
4.4505494e-05
1.1858551e-05
4.0209074e-06
5.8297672e-13
1.0777965e-08
3.2640338e-05
1.5614714e-05
1.5400012e-05
7.2294813e-05
3.5622986e-05
1.0332545e-05
2.9163647e-13
3.1401588e-08
3.2719209e-06
2.8821112e-06
7.3622446e-07
7.5699741e-05
7.5699595e-05
1.2498214e-05
2.9621245e-16
2.8316881e-09
1.6475452e-07
1.9380443e-07
9.0230912e-08
5.5465286e-05
4.8150117e-05
9.7824586e-06
8.6258383e-15
7.0390355e-08
6.2990385e-07
5.8766867e-07
9.0270394e-08
4.0837571e-05
3.7304022e-05
6.3216556e-06
7.0911844e-06
2.550004e-05
1.7952402e-05
1.7977065e-05
2.3538727e-05
0.00017301032
1.8875849e-05
6.3954853e-07
1.4231153e-05
2.9030419e-05
1.6152079e-05
7.2288083e-05
0.00016308009
0.00054042006
4.056862e-05
8.0903551e-07
8.0469952e-06
0.00017284521
3.2805689e-05
4.2833534e-05
0.00032912357
0.00050872471
7.4548441e-05
4.1072597e-06
1.6931788e-06
0.00017228649
4.9933933e-05
5.0469961e-05
8.7656635e-05
0.00020761803
0.00010838507
3.6560608e-06
1.0353766e-05
6.0435664e-05
4.2653547e-05
2.6448736e-05
8.7860516e-05
8.0511316e-05
0.00010458133
9.796549e-06
8.9848237e-06
3.3044806e-08
4.5475458e-06
7.5303101e-06
0.00012972646
4.3092503e-05
6.3863446e-05
9.877378e-06
1.7008436e-06
4.5568252e-08
2.9610727e-09
8.9680762e-09
1.5230779e-05
3.9089364e-05
1.7991358e-05
7.6337854e-06
1.2403002e-15
1.0560219e-08
2.7930683e-07
2.9243761e-07
1.459342e-05
3.8268729e-05
1.4346252e-05
3.6801315e-06
1.0245603e-06
3.3532819e-05
1.1590833e-05
0.043155696
0.0461075
3.5455803e-07
8.2749164e-08
2.2590288e-06
4.6525197e-06
0.00019649815
1.1451955e-05
0.046140921
0.049287754
2.8097073e-06
3.3120874e-05
1.466496e-06
5.5578296e-06
0.00019692769
1.7215823e-05
0.041263605
0.04610287
3.2900726e-06
7.4426572e-05
8.7509253e-12
1.0234088e-07
0.00015521534
9.8399349e-07
0.040094598
0.04657241
1.8549225e-06
1.8526452e-05
2.1476857e-06
2.0058071e-06
7.4797413e-05
2.7830503e-07
0.031599073
0.04169091
1.1368315e-06
1.4551704e-05
5.7697498e-06
1.1911256e-07
3.8414579e-05
6.3084627e-10
0.026053177
0.03904753
8.4020594e-07
2.6377089e-06
2.5277895e-06
1.2143356e-10
1.1070566e-10
3.9563035e-10
0.017292706
0.027745705
7.0425758e-07
5.3087372e-07
1.4153384e-06
2.048828e-13
2.9139601e-11
1.092713e-10
0.0093283919
0.028570859
8.4020594e-07
1.1592179e-06
9.6780697e-07
7.7934842e-06
3.9884692e-06
0.011418629
0.1659375
0.1685507
0.028829949
6.5547116e-08
1.328518e-06
2.9894223e-06
1.7891609e-06
0.017412354
0.16774401
0.1685507
0.040555583
3.6951633e-08
2.3300204e-08
1.0234093e-07
1.8514318e-07
0.017977721
0.16342598
0.16855063
0.039905469
1.6862037e-08
4.1141843e-09
8.9962517e-08
1.2516982e-07
0.019758988
0.16225042
0.16855043
0.047085985
2.3291697e-08
9.1537539e-08
1.0316332e-07
6.630701e-06
0.023071249
0.15529442
0.16854742
0.046026691
4.5703844e-08
1.4672986e-07
1.0950024e-05
7.0131312e-06
0.01989895
0.14195117
0.16847529
0.046262581
1.8108424e-07
4.5606253e-10
4.3143903e-05
5.8903736e-10
0.024817314
0.13525168
0.16825982
0.037706073
1.6116826e-07
1.8156334e-07
2.9253405e-05
0.00037768208
0.011391278
0.11555811
0.16308354
0.036357779
2.6766494e-07
1.4163744e-08
5.6002901e-05
4.6088047e-06
0.043256273
0.1685507
0.1685507
0.04039185
5.9594998e-08
6.5970614e-06
0.00010988129
4.4962553e-06
0.055382263
0.1685507
0.1685507
0.050503062
2.2427961e-08
2.9775653e-06
0.00026049789
2.0615784e-06
0.053885079
0.16855063
0.1685507
0.050606029
8.2110078e-09
4.1058822e-09
0.00050331769
3.5475678e-06
0.058746215
0.16855043
0.16855063
0.053226572
1.3106211e-08
3.8682202e-13
0.00051588717
2.8605938e-05
0.059415992
0.16854739
0.16855049
0.050865708
3.0748911e-08
6.4384337e-07
0.00030678622
3.5294343e-05
0.048740537
0.16847608
0.1685475
0.045810373
1.9001504e-06
2.1173418e-06
0.00023301065
0.00015712717
0.053230037
0.16737413
0.16847556
0.05731999
1.785391e-05
7.464839e-09
0.00025331802
0.00090575654
0.036833539
0.13725024
0.12972648
0.084404921
0.0014508881
2.3668023e-07
0.00056727472
0.00034960147
7.3677439e-05
0.099538759
0.044182549
7.9156459e-08
3.5539419e-07
2.112848e-05
0.00056727229
0.00056669668
6.9607181e-05
0.10352157
0.048937537
5.2176293e-08
5.4912604e-06
8.0548314e-06
0.00015409518
0.0001607431
6.7141249e-05
0.10505391
0.04863148
3.6003028e-08
1.415728e-06
5.0493772e-07
0.00045543823
5.9311761e-05
6.4227765e-05
0.1009932
0.050982725
3.4962133e-08
3.3206037e-08
4.2595378e-08
0.00093948865
0.00017841235
6.7134509e-05
0.1021894
0.0524
0.00059370648
3.597367e-08
9.1191413e-07
2.961348e-05
4.2104591e-05
0.00010355991
0.099712447
0.051874622
0.0029962814
6.0174492e-08
5.132354e-06
0.00015419206
0.00023353582
2.1683294e-05
0.091038264
0.049032876
0.004882912
1.9861591e-06
4.4563682e-06
0.00019046339
0.00075228151
4.9021116e-05
0.091871323
0.047922757
0.00058472222
0.00010113902
1.7652983e-06
0.00011829007
0.00011873207
0.0001183205
0.0082940137
0.0017696864
7.7124457e-08
4.4055777e-06
1.0555135e-05
0.00035740522
0.00026751304
0.00023345931
0.0080152148
0.0011788334
5.49544e-08
9.596006e-07
8.5817208e-06
0.00015387975
0.00037201067
0.00037115277
0.0066950297
0.0011649599
3.9204793e-08
3.3878823e-06
1.6217126e-05
0.00019548301
5.4801571e-05
0.00025013583
0.0059289051
0.00090677085
3.6003022e-08
2.9241452e-07
1.8431621e-06
2.8750403e-05
2.872226e-05
0.00017784828
0.0054930272
0.00039160998
3.9204793e-08
2.7868663e-07
3.2934941e-07
2.8717139e-05
2.8739816e-05
4.1886086e-05
0.0041509997
4.0107521e-05
7.868475e-08
2.5453573e-06
1.8358049e-06
2.9073099e-05
5.6341114e-05
1.9499216e-05
0.0018090582
3.3298889e-05
6.1551247e-08
3.1978735e-06
2.4819605e-08
5.3867795e-05
0.0001157746
7.3488532e-05
0.0029119378
0.00010433567
2.1264382e-06
2.6756398e-06
6.9345757e-08
8.2522464e-05
0.00012014869
0.00028767275
0.0001180845
4.1463735e-05
5.3153044e-05
6.0079279e-07
8.809346e-06
0.00013528434
0.00011940578
0.00033918584
0.00013405462
3.9369449e-05
5.2292693e-06
2.9985551e-07
1.9791947e-06
0.00014303715
0.00016645158
0.00040441759
0.00018670623
5.3476165e-05
5.7315398e-07
2.4667269e-07
3.4701387e-06
0.00015072141
8.9445588e-05
8.9927531e-05
0.00016356607
6.3729198e-05
5.4710045e-07
2.9850492e-08
5.1510854e-06
0.00028125838
9.1360982e-05
9.0415292e-05
5.3411323e-05
3.4775422e-05
5.8816558e-07
1.5133587e-09
4.0259388e-07
0.00028212427
0.00013864957
6.2375868e-05
4.6389512e-05
2.9503583e-05
9.7282207e-08
1.2964461e-09
1.5133591e-09
6.4439187e-05
2.8819154e-06
1.8345532e-05
1.8939531e-05
1.829378e-05
8.6517575e-09
1.5194694e-09
1.7437436e-08
2.827922e-06
2.8059566e-06
3.2917394e-05
2.6412878e-05
1.7264042e-05
1.3331041e-09
1.1742115e-08
8.6371636e-09
0.00081341593
0.00071638366
0.00044128172
0.00013408951
0.00013222949
5.994354e-08
1.2692578e-06
5.5964214e-06
0.00081342938
0.00081199291
0.00076916994
0.00013870852
0.00014496142
2.5379222e-08
9.2291584e-07
1.9068384e-06
0.00071826132
0.00080776972
0.00080498629
0.00016878585
0.00016958815
2.5406839e-08
5.8480604e-08
3.56602e-07
0.00015196199
0.00065404571
0.00080302353
0.00012680677
0.00015687299
2.5379223e-08
8.5220137e-07
2.8774578e-06
0.00015167089
0.00014912506
0.00080069681
0.00010407011
6.512846e-05
8.0306213e-07
9.4621482e-07
1.1681108e-06
0.00048935909
0.00029150947
0.00079360872
0.00018977569
6.0853174e-06
1.9086199e-07
1.2712923e-09
1.2964461e-09
9.2787434e-06
0.00070820942
0.00079284173
0.00030851498
1.3275525e-09
1.3275502e-09
3.6019325e-09
3.5686241e-08
4.7655327e-06
0.00027873742
0.00078889798
0.00013030945
1.333106e-09
1.3275387e-09
1.5184141e-08
4.77275e-08
0.00027703746
0.00015967552
0.0003047546
0.00013074252
9.8291944e-05
2.1752852e-05
2.3479802e-07
5.324502e-06
0.0003168533
9.3334912e-05
0.00048285164
0.00033166452
8.9095151e-05
2.5405757e-08
2.3397415e-07
1.3044498e-06
0.00046136546
0.00017790949
0.00057664213
0.00031391834
3.0272097e-05
2.5379222e-08
1.2591174e-07
6.2821356e-07
0.00060867849
0.00023137728
0.00061475203
0.00031632677
3.995078e-05
2.5420513e-08
2.4353181e-06
4.3351087e-06
0.0006102367
0.00010907473
0.00062656789
0.00031919236
1.0852727e-05
7.9424778e-07
7.0048275e-06
7.048333e-06
0.00060765257
0.00031654423
0.00079284173
0.00030237948
1.0354788e-08
1.1827984e-06
1.2717987e-09
1.2712924e-09
0.00041701089
0.00046353939
0.00079083584
0.00031724776
3.5165911e-09
8.4878045e-07
1.2717855e-09
6.6281235e-09
3.8523839e-05
0.00024627786
0.00077303842
0.00015937347
1.6831744e-09
1.4389087e-09
1.2995e-09
5.7124441e-09
8.3657884e-05
8.6233287e-06
4.3558487e-05
3.7016576e-05
1.4299797e-05
4.2892541e-05
3.2407029e-06
1.4856063e-06
0.0001348295
2.5755132e-05
3.4466731e-05
4.695977e-05
1.0688771e-05
1.1993942e-05
1.8113734e-06
6.3290148e-07
1.79673e-05
1.399734e-05
3.2145178e-05
2.8788965e-05
9.0245318e-06
5.6114038e-05
3.2483075e-06
6.2937505e-07
3.3286972e-05
4.1777999e-06
3.8958018e-05
6.153938e-05
1.8806523e-05
3.8064163e-05
1.3473991e-06
3.3673066e-06
0.00045222453
1.8813424e-05
5.1989031e-05
8.3831735e-05
1.1038866e-05
4.2357668e-07
3.3701065e-06
7.7972392e-06
0.00060531471
0.00011549349
0.00010858165
0.00022006477
1.1055519e-06
6.4533196e-07
5.1992386e-06
6.0579059e-06
3.5383004e-05
7.9364998e-05
0.00012305222
0.00031774747
5.4108905e-09
8.4874562e-07
2.5962294e-08
8.3879721e-09
4.0992092e-07
5.2262429e-05
0.00013854569
0.00031780097
5.7130893e-09
2.4363314e-07
1.419076e-07
7.8400161e-09
2.7250289e-05
6.2751137e-06
1.0030098e-05
9.4044314e-06
6.2215867e-06
4.5046813e-05
8.5330765e-06
1.1764291e-06
1.6050993e-05
4.7310955e-06
1.7217601e-05
1.170682e-05
3.6070194e-06
1.0020779e-05
5.924818e-06
3.9510859e-06
9.7708708e-06
4.1775668e-06
1.2428326e-05
1.2196659e-05
2.9657633e-06
5.9293797e-05
1.130059e-05
4.0565716e-07
4.1777999e-06
4.1777999e-06
2.550967e-05
9.2751909e-06
5.4897061e-06
8.3137528e-05
6.606871e-07
6.4742027e-07
1.845198e-05
4.1775662e-06
2.7767189e-05
2.9267364e-05
1.023365e-05
5.8746235e-05
3.9100691e-06
4.9545803e-06
5.1918748e-05
4.2756779e-06
8.0849587e-05
2.041412e-05
5.7850287e-06
2.2634539e-05
5.8716572e-06
7.0251007e-06
7.5019135e-05
1.1794918e-05
0.00036512888
9.8152311e-05
3.3306039e-06
7.7721737e-07
3.5955766e-07
5.3890348e-06
8.5310398e-05
1.494997e-05
0.0003381914
0.00026455962
5.4170243e-09
1.0783661e-08
3.4943312e-07
2.3461968e-06
2.9865478e-05
0.00014835563
0.00035956319
0.00017726344
3.2915786e-06
4.5046063e-05
6.1410047e-06
1.1764291e-06
5.8887347e-05
0.0001316847
0.00047869293
0.00017579488
2.4685176e-06
1.5128677e-05
6.4504941e-06
6.4490309e-06
1.4810983e-05
0.00010737373
0.00047844962
0.00013780227
2.7021471e-06
3.064763e-05
1.220537e-05
1.4417603e-06
1.8896578e-05
0.00016521242
0.00047746397
0.00023364331
2.9125265e-06
8.3143355e-05
6.8823449e-06
5.8067883e-07
2.4744548e-05
0.00015071585
0.00047309626
0.00010424829
3.3914092e-06
8.3145286e-05
8.3545571e-06
6.5081804e-07
3.0992428e-05
0.00013839435
0.0004719906
7.6187944e-05
3.9330158e-06
3.6195482e-05
6.3092946e-06
4.0692125e-06
3.2658807e-05
9.9740265e-05
0.00047025295
0.00026536871
8.3456726e-06
8.3048983e-07
1.9474831e-06
9.0512158e-06
3.7027372e-05
0.00011539039
0.00046924653
0.00039460904
1.1687232e-08
4.6348561e-06
3.5811691e-07
6.5566725e-06
1.0894676e-05
0.00031662596
0.0011463066
0.00010753574
1.552499e-06
3.274408e-05
3.2257294e-06
1.1764291e-06
5.4086875e-05
0.00037351737
0.00064970343
0.00024354259
1.6172658e-06
1.0817208e-05
4.2282119e-06
6.4357637e-06
1.8206668e-05
0.00046639033
0.00037666078
5.0674428e-05
3.8928222e-06
8.1844193e-06
6.2041478e-06
5.2281636e-06
2.3977058e-05
0.00048077477
0.00048367486
0.00023249408
7.2979778e-06
8.2549112e-05
2.6718651e-05
1.2045122e-06
3.8610011e-05
0.00047752176
0.00030569642
0.00033327342
2.4266092e-05
7.1892599e-05
3.3467078e-05
7.4735801e-07
6.2253715e-05
0.0002787317
5.9791842e-05
0.0002775907
1.8817335e-05
1.0343992e-05
2.3098465e-06
8.5464116e-07
0.00038470726
0.00042307802
0.00040401922
0.00026379807
1.790762e-05
6.6024537e-06
1.526533e-05
1.2800299e-05
0.00025973722
0.00042508477
0.00046874484
0.00032091265
1.1895499e-05
4.7577162e-05
1.4612381e-05
6.6224129e-06
2.8272298e-07
2.6876565e-06
0.0011790275
5.6945893e-07
5.6772253e-07
1.4879833e-05
4.7119359e-06
7.2133627e-06