/*--------------------------------*- C++ -*----------------------------------*\
  =========                 |
  \\      /  F ield         | OpenFOAM: The Open Source CFD Toolbox
   \\    /   O peration     | Website:  https://openfoam.org
    \\  /    A nd           | Version:  13
     \\/     M anipulation  |
\*---------------------------------------------------------------------------*/
FoamFile
{
    format      ascii;
    class       surfaceScalarField;
    location    "0.12";
    object      alphaPhi.water;
}
// * * * * * * * * * * * * * * * * * * * * * * * * * * * * * * * * * * * * * //

dimensions      [0 3 -1 0 0 0 0];

internalField   nonuniform List<scalar> 
150720
(
-2.67309e-66
-2.4535449e-65
-7.6905638e-66
-3.5094359e-66
-1.2295936e-66
-3.1159225e-65
-9.4058534e-66
6.7317369e-80
-3.1805973e-65
-9.6500676e-66
-1.4765122e-81
-1.0689999e-77
-3.23556e-78
-1.3458317e-81
-2.0846518e-79
-6.3096176e-80
1.0436229e-84
-3.1861234e-80
-9.66582e-81
2.3667848e-84
-2.6205692e-83
-7.8952916e-84
-2.0795061e-83
-6.5773965e-84
-3.0983732e-84
-1.4179826e-63
-4.2998101e-63
-2.1706182e-63
2.5838931e-63
-1.7855468e-64
-2.2743837e-63
-8.8644771e-64
9.7924251e-80
-3.8445654e-64
-1.5886432e-64
-2.8748035e-81
-1.6666645e-77
-7.3938656e-78
-1.9845161e-81
-3.2573915e-79
-1.4449654e-79
3.4412301e-67
-6.5310815e-67
-2.6971832e-67
2.7772919e-66
-4.3712739e-66
-1.6972719e-66
-8.2148513e-66
-4.1852207e-66
4.9435137e-66
-2.2037159e-63
-9.6197155e-63
-5.5743673e-63
3.7934634e-63
-1.7759377e-64
-5.419024e-63
-2.166186e-63
4.2319637e-79
-7.1225526e-64
-3.1462055e-64
-4.0109519e-81
-1.9471236e-77
-9.7129537e-78
-8.3983864e-81
-3.8091481e-79
-1.8998485e-79
3.4425147e-67
-1.2764891e-66
-5.6337884e-67
4.3090955e-66
-1.0499294e-65
-4.1783287e-66
-1.8461958e-65
-1.0773767e-65
7.3040455e-66
-1.692942e-63
-1.3904196e-62
-8.613471e-63
3.2038753e-63
-2.5731318e-65
-7.8431582e-63
-3.1703326e-63
5.3453084e-79
-8.0079064e-64
-3.6929534e-64
-4.8347019e-81
-2.0382348e-77
-1.0964452e-77
-1.0612107e-80
-3.9892023e-79
-2.1454365e-79
4.7569314e-68
-1.443349e-66
-6.6500501e-67
3.2802892e-66
-1.518632e-65
-6.1110951e-66
-2.67264e-65
-1.6626188e-65
6.190627e-66
-5.0911353e-64
-1.7121993e-62
-1.0826008e-62
2.2790524e-63
1.465406e-65
-8.6116203e-63
-3.5645045e-63
4.5163564e-79
-8.0871119e-64
-3.9184293e-64
-4.9121756e-81
-2.023576e-77
-1.1573408e-77
-9.00019e-81
-3.9612766e-79
-2.2648595e-79
-2.7136397e-68
-1.4599846e-66
-7.0686804e-67
9.5025458e-67
-1.6629834e-65
-6.8539929e-66
-3.2952753e-65
-2.0855815e-65
4.4254926e-66
2.5638964e-64
-1.8514335e-62
-1.1565612e-62
1.1113278e-63
2.9709642e-65
-8.3059482e-63
-3.5778993e-63
3.0343868e-79
-7.7937833e-64
-4.0142581e-64
-4.3781257e-81
-1.9554521e-77
-1.1724777e-77
-6.1104585e-81
-3.8281666e-79
-2.2946208e-79
-5.4711224e-68
-1.4076318e-66
-7.2473835e-67
-5.1088379e-67
-1.6011296e-65
-6.8698621e-66
-3.5640546e-65
-2.2219845e-65
2.1816466e-66
5.170052e-64
-1.8095928e-62
-1.0988915e-62
-3.2839209e-65
3.2281304e-65
-7.5760792e-63
-3.4636462e-63
-1.2919621e-66
-7.3746461e-64
-4.1027798e-64
-6.1099758e-71
-5.4328061e-67
-3.3686401e-67
1.9670317e-69
-1.1671647e-69
-7.2354375e-70
-5.9662084e-68
-1.3321971e-66
-7.4140942e-67
-1.0124515e-66
-1.4572799e-65
-6.63797e-66
-3.4812872e-65
-2.1049751e-65
-4.1786193e-68
6.5585661e-64
-1.0037114e-62
-2.9459786e-64
-1.714882e-62
1.2457994e-65
-3.3720685e-63
-6.6211863e-63
-3.9307553e-65
-4.1922915e-64
-6.7513406e-64
-3.8410079e-70
-2.9333715e-65
-4.8319751e-65
7.0732613e-68
-5.4151141e-68
-8.9193458e-68
-2.4249052e-68
-7.5833287e-67
-1.2193237e-66
-1.2746063e-66
-6.4483281e-66
-1.271034e-65
-1.9179015e-65
-5.622683e-67
-3.2961187e-65
-3.0663774e-43
1.9624561e-43
-2.9674592e-43
-2.6860839e-43
-9.2012597e-44
-4.5027515e-43
-3.4045496e-43
9.7627658e-49
-1.8378506e-43
-1.5811307e-43
-1.2566485e-50
-6.8032523e-48
-9.4110575e-48
-3.0347766e-50
-2.0744829e-49
-2.8665975e-49
4.1957674e-48
-5.4829436e-48
-4.6987395e-48
1.6937433e-47
-2.0693654e-47
-1.5412502e-47
1.2916134e-47
-1.5934733e-47
-1.4883841e-47
-1.0998379e-42
1.3686627e-43
-8.2137011e-43
1.3282977e-42
-2.1428879e-43
-1.1215337e-42
-6.6798903e-43
4.3992381e-49
-3.0127056e-43
-2.3560624e-43
-5.7687789e-51
-3.7240454e-48
-5.6026655e-48
-1.3746649e-50
-1.1386273e-49
-1.7111597e-49
1.2197424e-47
-1.3171821e-47
-1.0260115e-47
6.8016917e-47
-6.4407857e-47
-3.7878677e-47
9.0536461e-48
-5.0097495e-47
8.1143284e-47
-3.8593497e-43
8.082924e-45
-5.6817437e-43
7.8529863e-43
-3.6008617e-44
-1.1749572e-42
-5.7841667e-43
3.204226e-49
-2.3223533e-43
-1.6056773e-43
-2.3474995e-51
-1.6896317e-48
-2.4083628e-48
-9.940812e-51
-5.1761146e-50
-7.3690609e-50
2.0795973e-48
-1.0277479e-47
-7.078298e-48
2.4121051e-47
-6.9197153e-47
-3.368923e-47
6.9704513e-49
-3.5140438e-47
4.877239e-47
-7.2052901e-44
-8.3879484e-44
-2.8362987e-43
3.0117306e-43
8.6422879e-45
-9.9538539e-43
-4.3666224e-43
1.433748e-49
-1.5548349e-43
-1.001636e-43
-9.0683466e-52
-7.1845093e-49
-9.7949637e-49
-4.4498054e-51
-2.2055733e-50
-3.0028623e-50
-3.8340725e-49
-6.7910624e-48
-4.3588253e-48
4.604042e-48
-5.8895616e-47
-2.5586858e-47
-5.2947312e-48
-1.8091895e-47
1.9145464e-47
1.1282927e-44
-6.9234305e-44
-1.0800125e-43
6.4487625e-44
1.1027685e-44
-7.8381729e-43
-3.2736125e-43
5.2151337e-50
-9.9598964e-44
-6.3544127e-44
-3.1684743e-52
-2.9348257e-49
-3.9262382e-49
-1.6222337e-51
-9.0300671e-51
-1.2063053e-50
-4.8246428e-49
-4.3059849e-48
-2.7386348e-48
-7.0823862e-49
-4.6263675e-47
-1.9152497e-47
-4.4933071e-48
-6.9567174e-48
4.2728273e-48
5.5772322e-44
-7.2530711e-44
-7.4064781e-44
-4.6054906e-45
9.5776779e-45
-5.7559027e-43
-2.3980617e-43
1.6742058e-50
-6.0486343e-44
-4.0501743e-44
-9.7913436e-53
-1.1600469e-49
-1.5474758e-49
-5.2263245e-52
-3.5784819e-51
-4.76711e-51
-4.1506676e-49
-2.5901506e-48
-1.7305201e-48
-3.3276214e-48
-3.385472e-47
-1.3993694e-47
-4.492634e-48
-4.5321669e-48
-2.7754441e-49
6.2378551e-44
-8.4036626e-44
-6.5455528e-44
-1.1683683e-44
6.2967566e-45
-3.9864436e-43
-1.7352915e-43
3.8056938e-51
-3.4746557e-44
-2.5859518e-44
-1.7143119e-53
-4.4855402e-50
-6.0097018e-50
-1.1920163e-52
-1.387567e-51
-1.8570229e-51
-2.7056946e-49
-1.47251e-48
-1.0951122e-48
-3.6903091e-48
-2.3364258e-47
-1.0096649e-47
-5.0683076e-48
-3.8955088e-48
-7.0208024e-49
5.3163178e-44
-5.6668051e-44
-1.3496765e-44
-8.9071663e-44
2.6596024e-45
-1.2590689e-43
-2.5899253e-43
-9.5080635e-46
-1.6321431e-44
-1.8695604e-44
1.5165403e-54
-6.5176806e-46
-5.4595496e-46
3.9452131e-50
-2.8695057e-50
-2.404413e-50
-1.1375839e-49
-6.8328974e-49
-7.8154422e-49
-3.1288634e-48
-7.308233e-48
-1.5141527e-47
-3.3304926e-48
-8.0426556e-49
-5.3046564e-48
4.7105207e-30
-9.8666625e-28
9.7761326e-28
4.3424714e-30
7.7264319e-32
2.4154764e-32
4.646221e-30
-3.5620865e-20
3.4565017e-20
6.0887441e-20
2.7010575e-22
1.5086121e-20
1.5441125e-19
7.9963125e-22
1.1089622e-21
3.3927548e-20
-2.1184038e-32
2.8079902e-21
5.2777085e-21
-1.1209516e-29
5.8479976e-32
1.1129852e-29
-2.2838512e-27
2.2622884e-27
1.0353296e-29
2.494986e-27
-5.5420421e-28
1.2126251e-25
-1.2418995e-25
2.4825953e-29
6.1308096e-29
2.4285632e-27
-6.5085232e-22
9.9688189e-21
3.8720413e-20
4.7085238e-25
7.9318241e-24
2.0539814e-21
4.2994092e-23
4.8358711e-25
2.3433725e-22
-2.9780201e-29
1.184044e-21
3.7616983e-21
-5.6618523e-27
1.4022029e-28
5.4919338e-27
-1.427329e-28
2.7141834e-25
-2.7922131e-25
5.4048075e-28
-3.2605916e-26
3.389663e-26
-2.3851848e-27
1.9641841e-28
1.2537762e-24
6.686779e-25
-1.4186944e-24
3.3259255e-21
8.5747506e-21
5.1007504e-28
7.2146898e-26
6.4404673e-24
1.0462801e-25
9.4171103e-27
3.7005192e-25
-2.39778e-32
5.3991883e-22
1.0955484e-21
-1.373495e-28
1.2414619e-28
6.4766374e-28
-3.2135134e-27
8.523506e-27
-5.5900531e-27
9.3212814e-27
-1.0117578e-24
9.8928851e-25
-1.4573923e-29
-4.112135e-22
4.26227e-22
2.0218382e-22
-5.6871329e-26
1.1916854e-21
2.0875609e-21
4.2016898e-30
3.0117333e-27
1.2259634e-26
7.660062e-27
3.503551e-28
1.4108948e-27
7.1150918e-23
2.5576457e-22
3.5108331e-22
-8.9720419e-28
6.0805466e-23
3.1286807e-23
-2.0068078e-25
1.9664157e-25
-7.1502909e-29
-7.6546494e-24
2.7523972e-24
9.771694e-24
-1.6699373e-31
-2.0959303e-22
5.2718154e-22
1.9253874e-22
-2.9506408e-27
4.28049e-22
6.6405033e-22
6.2262852e-32
8.960109e-30
5.2070167e-29
3.4363539e-28
1.0533704e-30
5.7286019e-30
4.7323776e-23
1.1373852e-22
1.4671862e-22
9.1977884e-25
8.5539768e-23
3.8937389e-23
3.370973e-25
1.1459731e-24
-3.5053173e-31
-5.8411778e-23
3.4701795e-23
4.7404372e-23
5.6398345e-24
-9.3570027e-23
4.4451791e-22
1.8417855e-22
-8.7759425e-30
1.3437519e-22
2.3790891e-22
1.365594e-34
2.3806123e-32
1.6022377e-31
1.0318324e-30
2.8364696e-33
1.883814e-32
2.5550575e-23
4.4176783e-23
6.4211523e-23
7.4890919e-24
8.6749866e-23
3.2866607e-23
5.6966498e-24
5.6977563e-24
7.4991526e-25
-8.1849908e-23
6.5152605e-23
7.1156997e-23
9.3236697e-24
-3.905618e-23
2.9619128e-22
1.4690258e-22
-1.0953793e-32
2.1398597e-23
8.2718001e-23
-1.129685e-39
1.2356725e-32
4.9560647e-34
6.8041562e-34
2.0398118e-33
1.1624108e-34
1.1219983e-23
1.0874584e-23
2.9155625e-23
1.6655525e-23
6.4757732e-23
2.9429893e-23
1.3529702e-23
1.2664821e-23
3.473741e-24
-5.8824161e-23
7.0852625e-23
8.5877504e-24
6.8247823e-23
-4.1751125e-24
1.0670773e-22
1.6437843e-22
3.1163811e-26
1.3509284e-23
4.4021898e-24
-6.792896e-30
2.8692856e-26
2.9030535e-27
-3.6501099e-26
3.8772929e-26
3.8007485e-27
2.0814523e-24
7.2146742e-24
2.3130494e-24
1.367507e-23
2.303709e-23
3.9432115e-23
1.5400915e-23
2.2073348e-24
1.6316894e-23
2.2793091e-18
-1.8900479e-18
1.1182035e-18
1.8168018e-18
2.5609474e-21
1.0494471e-20
2.2662536e-18
-2.1937824e-19
9.2681337e-22
2.8219208e-19
1.0915199e-21
-4.6581165e-23
6.0871251e-19
1.8472684e-19
-2.3260857e-22
5.0794449e-19
-2.9826151e-21
6.5609299e-22
1.9253327e-19
-2.6278041e-18
1.2417424e-20
2.6124041e-18
-2.230372e-18
1.2541907e-18
2.1916057e-18
1.0000572e-18
-3.6310633e-19
4.0106725e-19
-2.1944853e-18
5.0836038e-21
1.7609823e-20
9.8839823e-19
-1.8470109e-22
3.6010542e-22
4.4601389e-20
7.880759e-25
-6.3519663e-24
6.7447748e-22
8.0006828e-25
-5.1069532e-26
1.4606114e-24
-8.131672e-21
1.3421862e-22
1.2410981e-20
-1.5579779e-18
3.9241984e-20
1.5230216e-18
-7.5107339e-19
6.3577766e-19
-2.5634281e-18
9.1522518e-20
-7.9840381e-21
1.7784968e-19
-6.4825749e-19
-6.7142014e-24
5.5895059e-21
1.0356235e-19
-4.3228163e-26
1.6021643e-22
8.7701989e-21
1.6785054e-29
-5.7622834e-28
3.8233357e-26
1.3841147e-26
-4.1651725e-28
5.3498321e-26
1.2488314e-24
2.1880574e-23
1.2065251e-21
-2.0884958e-19
1.0315415e-20
2.3777827e-19
-2.8977423e-20
2.9950568e-19
-1.1994516e-18
3.1025542e-21
-2.6358305e-23
1.4586176e-20
-2.6158394e-20
-1.4480411e-23
2.3579811e-22
8.6892112e-21
-3.4493305e-27
4.1326736e-23
2.1884046e-21
9.2781574e-31
-1.33372e-27
2.61451e-27
4.8169342e-28
-2.2318716e-27
1.9744499e-27
2.6269447e-24
7.9723727e-24
3.6248632e-22
-7.753596e-21
6.3398679e-22
1.7472384e-20
-7.4101243e-23
4.5580616e-20
-1.0936331e-19
-7.2876913e-24
-1.1495306e-23
2.3457642e-22
-2.290706e-22
-5.0984528e-24
7.9533716e-23
3.288309e-22
-1.0890113e-27
9.797208e-24
6.9050833e-22
7.2213102e-31
-2.0771397e-27
6.6192147e-27
3.2451683e-27
-5.2393305e-27
1.29861e-26
1.8130882e-24
2.1298713e-24
1.5077859e-22
8.4258568e-24
2.2313106e-23
6.4785125e-22
-1.2264809e-24
7.2902396e-22
-7.9149068e-22
-3.0140569e-23
1.429162e-23
4.4072858e-23
8.679118e-24
-5.4717238e-23
2.1583979e-22
6.9774443e-23
-8.5865432e-28
7.5696059e-23
1.0688967e-22
-3.7484264e-31
-2.8465859e-27
6.7066698e-27
1.730037e-26
-3.7440141e-26
6.5465384e-26
1.4686547e-23
2.0246969e-23
2.9173731e-23
3.6877003e-24
3.0705582e-23
1.909825e-23
1.842006e-24
6.2838549e-24
2.0918331e-24
-7.2621244e-23
5.7249275e-23
6.9478435e-23
2.7733505e-23
-4.7947405e-23
2.3337429e-22
9.8967475e-23
-3.3721955e-27
2.2911234e-23
8.2139396e-23
-1.3373755e-29
-3.2595441e-26
4.3561598e-26
4.1561473e-26
-1.4467552e-25
2.2659487e-25
1.329102e-23
9.4505127e-24
2.7699589e-23
1.0378858e-23
4.390662e-23
1.742579e-23
1.118549e-23
1.3206083e-23
4.5698202e-24
-7.5424371e-23
8.6486703e-23
2.5339082e-23
8.8725318e-23
-1.1788438e-23
9.8922043e-23
1.6925451e-22
1.9793683e-25
2.0922262e-23
9.0417951e-25
-1.3773055e-28
2.0418175e-25
-1.7680176e-27
-3.084402e-25
2.9359673e-25
-8.4318716e-28
5.5418521e-24
1.2000501e-23
5.0771306e-25
1.6372082e-23
2.1397652e-23
3.8502567e-23
2.0495681e-23
7.6328772e-24
2.0113255e-23
1.1946866e-18
-6.2270003e-20
5.6736429e-21
0
2.3412971e-15
1.8549443e-16
1.9949825e-15
0
1.0918678e-14
3.0135673e-14
3.8725911e-22
0
4.8822063e-19
0
0
4.2168192e-19
-1.9743592e-15
9.3002945e-15
2.527429e-14
-1.2804568e-18
1.2321929e-16
1.4844709e-15
-3.0194114e-20
3.355593e-21
0
4.6158403e-18
-1.1890716e-18
4.4453158e-20
-3.1115621e-18
5.8721287e-16
1.1778107e-17
2.7469925e-16
0
8.0559593e-16
1.5730762e-14
0
0
3.7572546e-21
0
0
2.2463552e-22
-4.4953833e-16
8.0309678e-16
1.283585e-14
-2.8729491e-18
8.1660937e-17
1.7581899e-16
-8.3978346e-19
2.099255e-20
-1.4485963e-18
1.7700209e-18
-9.5424837e-19
5.0899669e-19
-3.4506698e-18
-6.0642233e-18
6.0531929e-19
1.9113842e-17
-4.6556981e-27
2.0471564e-17
7.7904286e-16
1.3100383e-29
-2.6060805e-26
6.9582687e-26
1.981859e-26
-1.3276112e-25
2.7079323e-25
7.4014366e-18
2.6068691e-17
7.6963906e-16
-1.2995718e-18
6.1505668e-18
8.4453562e-17
-1.1717651e-18
4.3298455e-19
-2.4740428e-18
1.0809205e-19
-7.1225019e-21
5.0119767e-19
-1.2099293e-18
-7.2873544e-19
1.0909592e-19
1.3445907e-18
-4.5800671e-27
5.4425868e-19
1.9200533e-17
-1.1445027e-29
-3.609056e-26
9.9453263e-26
3.4806944e-26
-1.8742897e-25
4.7001752e-25
6.9754908e-19
6.6976048e-19
2.4701976e-17
-1.9447792e-19
3.9057569e-19
6.6712131e-18
-1.9874317e-20
7.3592117e-19
-1.799108e-18
-3.0826674e-21
-2.8082985e-23
1.345341e-20
-1.6969211e-20
-3.2751325e-20
1.059136e-20
1.2892489e-19
-3.9300086e-27
6.1767038e-21
5.0599887e-19
-6.9611482e-29
-5.5979426e-26
8.0111659e-26
3.0281626e-26
-2.7108596e-25
3.3251058e-25
2.761329e-20
6.7315532e-21
6.3616607e-19
1.8767401e-21
2.6002168e-20
3.9161931e-19
-3.1421338e-22
1.8540346e-20
-3.4739597e-20
-1.260759e-21
1.6853833e-24
1.2581446e-21
9.326676e-24
-1.0567796e-21
3.9906302e-21
6.7224607e-21
-7.9007271e-27
1.5469947e-23
5.2122688e-21
-1.5250959e-28
-1.1321328e-25
1.1331318e-25
7.573869e-26
-3.1465918e-25
2.7415682e-25
8.2686495e-22
1.3943185e-23
5.9133679e-21
4.7963493e-22
8.0934775e-22
2.5600736e-20
1.717874e-23
1.2919038e-21
7.6767004e-23
-9.8281474e-23
4.4699419e-23
4.7260746e-22
2.8022823e-23
-3.1304954e-23
2.2281281e-22
3.8578391e-21
-2.8147685e-26
5.3265267e-25
3.3167087e-23
-2.2014572e-28
-2.4565489e-25
1.6320911e-25
6.6388414e-26
-3.3361507e-25
2.8413203e-25
1.5771352e-23
2.0938303e-25
2.1333307e-23
8.6053401e-23
4.987955e-23
7.0744485e-22
7.1312058e-23
4.1149417e-22
2.182851e-23
-1.8709353e-23
1.5110222e-22
5.7912238e-23
1.0057793e-22
-6.5887426e-24
2.7127808e-22
3.3430724e-23
4.9395827e-25
1.0177141e-23
-6.2556087e-25
-4.6598971e-28
2.9437583e-25
-2.3877408e-27
-3.0809609e-25
2.9129006e-25
-3.0228951e-27
4.6935687e-24
7.9061904e-24
-3.0057519e-25
1.86292e-23
2.2788048e-23
2.3537263e-23
1.0926738e-22
1.1595274e-23
5.6695092e-23
3.699687e-20
-1.8897267e-20
2.8927658e-21
3.3422708e-21
4.4824926e-15
1.120977e-14
1.4856225e-14
-8.0447067e-20
3.1070061e-14
3.8138534e-14
1.2799714e-22
-1.2100702e-21
1.5519252e-19
6.8900134e-20
-4.0061537e-23
1.3233921e-19
-3.7480308e-15
2.6163033e-14
3.1753656e-14
-4.4356099e-21
9.4474936e-15
1.2162539e-14
-3.5789549e-21
5.303848e-22
1.5231936e-21
3.7623875e-19
-7.2130283e-20
1.1608042e-20
-2.7110361e-19
1.1714281e-14
0
2.5891754e-15
0
1.7420205e-14
9.541047e-14
0
0
7.1423589e-21
0
0
2.362837e-22
-1.0204277e-14
1.5853384e-14
7.6596533e-14
-5.4717142e-20
0
2.0345181e-15
-2.9629652e-20
2.5553116e-21
-1.0780161e-20
1.6971847e-18
-1.220952e-19
3.0944549e-20
-1.1491138e-18
-1.4578252e-15
7.9281338e-17
1.3615093e-15
0
1.1565502e-15
2.6032013e-14
-5.5506665e-29
-3.0457729e-26
9.3762068e-26
0
-8.2992753e-26
2.751659e-25
1.3164096e-15
1.2456532e-15
2.6226589e-14
-9.9580658e-19
7.1442706e-17
3.6273395e-15
-1.3872204e-19
1.3090754e-20
-4.668409e-19
1.6156851e-18
-2.4318451e-20
7.3986994e-19
-1.8410861e-18
-1.09877e-16
1.7334384e-17
1.7487415e-16
-8.7342772e-26
6.7206438e-17
9.9889555e-16
-1.9867791e-27
-1.5027794e-25
4.031992e-24
7.9944748e-26
-3.0713699e-25
3.0413447e-24
4.4019311e-17
2.127011e-17
1.2053844e-15
-4.2243177e-18
1.013084e-16
1.0753412e-15
-2.6208125e-18
8.6733287e-20
-1.1036809e-18
-1.3861289e-18
-5.2984166e-21
1.3861178e-18
-4.2469888e-21
-3.5478232e-18
2.7296099e-18
1.6959719e-17
-2.6457392e-26
1.1295469e-18
6.3040158e-17
-4.0508467e-28
-1.8741654e-25
4.9376975e-25
1.6640111e-26
-2.9271802e-25
5.9245215e-25
4.1706132e-18
4.2270188e-19
1.7361009e-17
1.5864838e-18
9.5434907e-18
9.4810282e-17
-4.4002683e-19
2.8207964e-18
-1.1949358e-19
-2.8537297e-19
-6.7362131e-23
2.7974399e-19
1.8917359e-21
-1.4092411e-19
1.0844272e-18
1.519434e-18
-1.0267344e-26
4.416978e-21
9.9841025e-19
-2.3262723e-28
-1.8872574e-25
1.4386137e-25
1.0909634e-26
-2.0700344e-25
2.1658406e-25
8.1691975e-20
3.2013131e-21
3.4370967e-19
3.8358372e-19
8.7765311e-19
8.3961658e-18
-1.4895451e-20
6.3532295e-19
5.3358427e-20
-3.2306304e-20
5.2881806e-22
3.1860478e-20
4.2306295e-22
-1.7162825e-21
7.8989985e-20
9.8059932e-19
-1.3595583e-26
-1.6000743e-24
2.7354815e-21
-2.4251225e-28
-1.6030536e-25
1.2583834e-25
1.4338773e-26
-1.7050487e-25
1.3395473e-25
6.4139702e-22
-1.3832014e-24
2.5802521e-21
5.8144974e-20
7.740706e-20
7.4373963e-19
2.667952e-20
1.8743788e-19
8.3174824e-21
-2.8126272e-21
3.3095791e-21
3.9663125e-23
1.0524206e-22
-1.7227119e-24
7.3334958e-20
2.9800098e-21
3.665207e-26
1.9347744e-24
-4.2162732e-25
-2.3972264e-28
1.1005521e-25
-9.1375828e-27
-5.0803543e-26
1.1638636e-25
-3.1510447e-27
4.9197004e-25
1.910831e-24
-1.8980549e-24
6.8251296e-21
6.5157718e-20
5.4417316e-21
3.4484156e-20
1.2945394e-21
1.6369593e-20
4.4246497e-20
-3.241676e-20
2.866278e-21
7.9919536e-21
8.4902246e-15
1.3820147e-14
1.0329348e-14
-1.54608e-19
5.01462e-15
1.1127784e-14
5.2147433e-26
-1.6365796e-23
5.978173e-22
1.3183261e-19
-5.484978e-25
5.0816569e-22
-6.3921439e-15
6.1621142e-15
8.9535129e-15
-2.756712e-17
8.2405152e-15
3.5088631e-15
-5.9488743e-17
1.3288647e-19
3.2823859e-17
7.1798622e-20
-2.766648e-19
1.7680171e-18
-9.5645843e-19
6.6341039e-15
4.9901561e-16
9.2763809e-15
-7.0435236e-21
1.7637281e-14
6.0322728e-14
-1.441831e-27
-9.194447e-26
8.2804952e-23
2.3306213e-22
-8.0433387e-26
2.7721073e-24
-8.7659888e-15
1.6195569e-14
5.3675755e-14
-1.7388715e-16
0
2.7417559e-15
-1.9594427e-18
3.1232181e-15
-3.3546321e-15
4.3481621e-18
-7.3453263e-18
2.8614275e-18
-2.6699921e-20
-1.570367e-14
8.9366713e-16
1.6676902e-14
0
7.5480787e-15
7.7317435e-14
-1.6857846e-28
-1.926801e-25
2.0599567e-25
0
0
1.7978972e-25
1.1127584e-14
1.5103593e-14
7.9532043e-14
-8.237816e-17
9.3412337e-15
6.3968106e-15
-1.9770694e-19
1.0089385e-17
-9.4214522e-17
1.6251675e-18
-2.4918352e-16
2.4106353e-16
-3.1920047e-20
-5.9585951e-15
4.8499221e-16
6.5678894e-15
0
2.4246948e-15
2.777501e-14
-2.8818601e-27
0
1.2081477e-23
0
-8.2072382e-24
9.4069628e-24
7.1994618e-15
7.4728058e-16
3.2258836e-14
-8.3948872e-20
6.0761284e-15
9.5928355e-15
-2.0584499e-18
2.9248143e-18
-9.3160956e-19
-3.9899191e-18
-4.9579178e-16
1.564974e-15
-7.2639639e-18
-2.048027e-16
6.0961179e-17
6.9821888e-16
-1.8465644e-25
1.926337e-17
2.264493e-15
-2.418778e-27
-1.0840044e-25
1.9242886e-24
1.7569551e-25
-2.6130247e-23
9.8156191e-24
3.3272536e-16
2.5421377e-17
4.0407449e-16
5.8687868e-17
5.5589537e-16
5.889768e-15
-2.9681196e-19
5.9932003e-17
-1.2101119e-20
-1.8353235e-18
-1.1119985e-16
1.2366885e-15
1.9274065e-16
-4.4458682e-18
7.1666666e-18
5.8681818e-17
-1.8380572e-26
8.6273028e-19
1.4932684e-17
-3.4986633e-26
-2.0705022e-25
1.4854097e-25
3.317753e-24
-4.2017313e-23
2.8335688e-23
1.0023755e-17
1.386336e-19
1.5602784e-17
1.2717047e-17
4.6669177e-17
5.1522602e-16
-6.5224792e-21
1.3060688e-17
5.6076389e-20
-8.3634891e-16
2.7278098e-17
7.196651e-16
1.2831668e-17
-8.4381113e-19
3.0198893e-15
1.7508764e-15
-1.2330718e-25
-9.2526587e-25
2.2726141e-20
-6.253145e-26
-2.7450512e-25
1.3264354e-25
2.7828002e-24
-2.9583162e-23
2.4254861e-23
6.7272982e-20
-2.0711636e-21
7.603466e-20
1.5285133e-18
3.5724286e-18
4.2403429e-17
2.5569484e-20
1.6565362e-18
2.7248624e-20
-5.0186471e-16
1.3263697e-16
2.1482222e-18
0
-6.693245e-23
7.3645364e-16
1.3773155e-16
1.9817625e-26
2.4754382e-24
-1.2810692e-23
-3.0174116e-26
2.0522241e-25
-3.8716815e-25
-4.3488321e-25
2.9809634e-23
-2.9313032e-23
7.6501017e-23
8.1882234e-23
-2.2231335e-21
1.4098986e-19
3.3738332e-18
1.2823363e-19
1.9270556e-19
3.9699331e-21
3.7005345e-21
2.271407e-15
-2.7719942e-13
1.2186667e-15
2.737874e-13
0
1.2701599e-14
2.7035417e-17
-5.9565574e-22
2.9881574e-15
1.5619874e-15
-1.2458268e-27
-2.1564822e-25
2.3734535e-24
5.0615243e-22
-1.2268669e-26
2.0123858e-24
-1.0916041e-16
4.0334345e-15
1.0965064e-15
-3.1017538e-14
6.5503024e-15
2.0221664e-16
-5.0160933e-14
8.9753211e-15
3.105951e-14
5.3782503e-13
-1.0625172e-13
3.5705366e-13
0
1.5688299e-14
6.6453527e-13
1.6960585e-13
-8.1620698e-23
4.4788867e-14
8.0392573e-15
-6.6834661e-29
-2.0849889e-26
1.0006319e-24
2.7256057e-24
-2.3039807e-26
5.7139601e-26
-2.4506093e-14
2.3742941e-14
1.4577985e-14
-1.2335087e-13
1.7683875e-13
4.8862276e-14
-1.9662729e-14
5.6780761e-14
-4.8783381e-17
2.8814152e-14
-1.3509995e-13
1.3540032e-15
-2.519643e-16
-2.0662638e-14
7.7850653e-13
2.5202751e-13
-4.199917e-25
1.4074068e-13
2.6725866e-14
-1.0195599e-28
-2.7744852e-25
4.334121e-26
3.4925139e-25
-2.3332712e-25
4.7747107e-26
1.93255e-14
1.0670955e-13
8.3835263e-14
-7.1733037e-15
2.4566295e-13
7.0665523e-14
-2.9100577e-14
2.5705095e-15
-1.9635935e-17
3.5122776e-15
-9.7871534e-14
3.6936654e-14
-1.8092963e-13
-8.3717619e-14
7.7581343e-13
3.7548487e-13
-1.1633525e-23
6.5549498e-14
9.3779391e-14
-7.7443526e-28
-1.4389468e-25
3.2008028e-25
9.4277397e-24
-5.1205122e-25
2.6830025e-25
3.2208621e-14
5.6974673e-15
5.6758411e-14
-8.9212397e-16
3.0146791e-13
8.9046421e-14
-1.0997921e-13
8.0683678e-14
-1.8535092e-14
-8.6014008e-14
-2.1460058e-14
2.6700676e-14
-3.9522163e-16
-7.2105884e-15
3.462152e-13
3.2769594e-13
-1.8590803e-24
7.4131136e-16
4.5946824e-14
-1.3219446e-27
-1.8125364e-25
1.1655335e-25
1.1273693e-23
-2.1270479e-24
3.751849e-25
3.0432981e-15
9.5730967e-16
1.5995525e-15
4.0754541e-14
2.4175335e-13
1.1290416e-13
-6.2423339e-14
7.6661998e-14
-5.2555109e-16
-4.5091191e-14
-7.0779207e-16
6.0132884e-15
1.1760407e-15
0
1.164047e-14
1.1780568e-13
-6.4375559e-25
3.4411681e-18
7.5329505e-16
-5.0668353e-27
-6.8016123e-25
1.1874343e-25
4.0281461e-23
-1.5261296e-23
1.4858606e-24
9.3888646e-16
2.912358e-18
3.1113695e-17
6.361779e-14
1.4018991e-13
1.171672e-13
-1.8862238e-14
6.376401e-14
3.9983959e-15
-3.0910576e-15
0
9.4457262e-16
1.7639875e-16
-8.3918559e-20
4.4161714e-16
9.9521925e-15
-4.947389e-24
-1.5937743e-25
3.377379e-18
-3.044108e-26
-5.5628132e-24
2.7754381e-25
2.1679317e-22
-2.1671024e-22
9.1192079e-24
2.8806627e-18
-9.2313145e-22
1.0887436e-19
6.7386578e-14
5.340852e-14
1.1782605e-13
1.0987147e-14
5.5943804e-14
8.4237826e-15
-2.9953397e-16
1.6281088e-16
4.7411145e-17
7.1938627e-17
-3.890516e-23
7.7513806e-16
1.0181254e-16
1.2805849e-26
5.187392e-24
-2.1304577e-23
-2.5657906e-26
4.3521102e-24
-9.3624989e-24
0
1.1951161e-22
-3.3042356e-22
0
3.6589899e-21
-3.2255337e-22
4.542253e-14
7.7192742e-14
9.3809145e-15
6.5174311e-14
1.1964591e-14
7.6842619e-15
2.1228221e-15
-8.1315705e-13
1.6744371e-15
8.1070635e-13
6.4017308e-18
2.1169229e-15
1.4803025e-17
-1.2756361e-26
5.5028727e-18
1.5628862e-15
-2.1790626e-29
-8.3752129e-27
2.3830133e-24
1.0506283e-26
-5.7639949e-27
2.0075528e-24
-5.781901e-18
3.8892144e-18
1.0983991e-15
-7.8700969e-16
9.4452919e-16
1.417345e-17
-5.3590321e-13
1.0895616e-15
5.4306515e-13
0
0
5.4121969e-13
-6.7756133e-13
1.0580244e-14
9.5533965e-14
1.7534158e-14
-9.7385842e-25
1.5063292e-15
1.7118675e-14
-4.6428331e-29
-1.8812185e-26
3.7046319e-26
4.4403279e-26
-1.8914821e-26
2.5435353e-26
-4.9963416e-15
3.0817265e-15
1.649649e-14
-1.4258167e-14
4.7884535e-14
1.2456086e-14
0
4.2380453e-13
-1.1852066e-12
6.6757321e-14
-2.9738519e-14
1.4434692e-13
-1.8392111e-13
-3.3534289e-15
4.1167415e-13
1.1466071e-14
-3.5988534e-26
3.3783835e-14
3.6435684e-15
-1.070021e-28
-4.8598427e-26
3.7298464e-26
4.0495424e-26
-4.8364922e-26
3.7283591e-26
8.8310108e-15
2.4620858e-14
6.0083167e-15
-3.7820705e-14
1.2024843e-13
2.7333043e-14
-2.9107107e-13
1.7510182e-13
0
0
-9.9741615e-14
3.2644004e-14
0
-1.0460227e-13
1.1817262e-12
2.6193746e-13
-3.0607505e-25
5.6884207e-14
2.7379106e-14
-1.9421959e-28
-8.7950344e-26
5.4162265e-26
2.8788631e-25
-1.1875192e-25
5.3719225e-26
2.3724345e-14
1.4329236e-14
3.3879695e-15
-5.9135691e-14
2.6601509e-13
2.3420163e-14
-1.8572981e-13
1.8930148e-13
-1.5095017e-14
-1.5686813e-13
-2.7088255e-14
2.2398553e-14
0
-3.6125846e-14
1.4051292e-12
3.5461569e-13
-3.0202808e-25
2.3416544e-14
4.3725127e-14
-3.7462684e-28
-3.3730962e-25
6.8960011e-26
9.6533348e-25
-7.9070651e-25
9.2212433e-26
1.4952001e-14
3.6977023e-16
6.0701949e-16
2.5794573e-14
4.0361351e-13
7.9045018e-14
-9.4128881e-14
2.5179512e-14
-3.2092553e-15
-1.1340849e-13
-8.9810715e-16
1.3605199e-14
1.2612195e-15
0
2.5297415e-14
1.7187608e-13
-3.7956205e-24
8.5156021e-18
6.5731442e-15
-2.1642807e-27
-4.1486267e-24
1.4880233e-25
1.2067054e-23
-1.1714341e-23
5.5036217e-25
3.8741019e-16
7.7020152e-19
1.2703548e-17
1.530577e-13
3.4179469e-13
9.9094159e-14
-1.9103277e-14
5.0418051e-14
2.1124824e-14
-7.2250307e-15
3.881069e-16
1.5860215e-15
6.963077e-18
-5.3887958e-19
5.8890755e-15
2.2095744e-14
-3.3445603e-23
-1.8843658e-21
1.137207e-17
-1.417737e-26
-3.8544148e-23
1.3318789e-24
1.380945e-22
-1.4402197e-22
6.8039335e-24
8.6502026e-19
-2.4434375e-21
1.6683953e-20
1.4550013e-13
2.5271339e-13
1.1360969e-13
5.9853647e-14
9.6967224e-14
6.9827435e-14
-1.7574439e-15
2.0556728e-15
7.1753709e-17
1.0342338e-16
-2.3173305e-22
2.5780391e-15
2.3287366e-15
3.0232811e-26
1.1993584e-22
-2.2131375e-21
-6.9681342e-26
3.4220685e-23
-1.0838315e-23
-9.4022964e-24
5.346794e-23
-4.7057808e-23
1.2499248e-19
2.8153032e-21
-1.2609522e-19
8.1648641e-14
7.0261866e-14
3.5303768e-15
8.2216136e-14
2.113169e-14
1.4540204e-14
1.1211857e-14
-4.2225685e-12
9.0594987e-15
4.2051346e-12
3.1740261e-15
8.064591e-15
1.401868e-16
-1.5514543e-13
1.908899e-13
2.93818e-12
-5.3929839e-16
-4.6393355e-26
6.1786938e-13
1.5643785e-13
-3.5130572e-26
6.170077e-13
-2.6586934e-15
1.9396179e-13
2.9596684e-12
-7.1945375e-15
4.5553967e-15
6.6397999e-17
-1.9525282e-12
3.9168119e-15
1.9431103e-12
3.3826352e-13
0
3.506149e-12
-4.0355023e-12
1.5681174e-14
2.3788442e-13
1.1140368e-13
0
6.335773e-15
7.4198152e-13
-6.4072381e-29
-3.5673792e-26
2.597347e-26
0
-3.5969847e-26
2.5784305e-26
-1.8950569e-14
0
7.4565523e-13
-2.0116502e-13
1.4158603e-13
5.8154609e-14
0
1.9545362e-12
-1.9034986e-12
0
0
7.1356529e-13
0
-3.8230913e-15
5.4090462e-13
1.3590887e-13
-6.4802846e-28
3.5601888e-15
2.7276279e-15
-1.1307831e-28
-3.7802785e-26
3.8754687e-26
0
-3.7161347e-26
3.872618e-26
1.618947e-15
2.0704184e-16
2.8751389e-15
-2.6313414e-13
5.4532954e-14
3.8409547e-13
-2.030806e-13
4.0294944e-13
0
0
-8.5277668e-15
3.2068253e-14
0
-2.6809776e-14
4.390367e-13
2.503605e-13
-1.0806724e-25
3.3145815e-15
8.3742175e-16
-2.3091875e-28
-1.4262943e-25
5.1204107e-26
2.5181518e-25
-2.8960567e-25
5.4790954e-26
2.4094525e-15
5.8990713e-16
5.9570744e-16
0
2.0736327e-13
1.0299546e-13
-8.0566102e-14
1.757422e-13
0
-6.4172326e-14
-2.5486218e-15
8.9146382e-14
-7.5088662e-16
0
1.1143286e-15
7.9973306e-14
-1.5888577e-24
1.2118535e-14
6.3174577e-15
-9.8978001e-28
-1.7679655e-24
1.1046417e-25
4.9244652e-24
-5.2433238e-24
2.1940794e-25
1.1413836e-15
2.1404605e-17
3.4132635e-17
2.6328095e-14
3.8421489e-13
8.0413311e-14
-6.6002163e-14
4.1584349e-14
-1.2349745e-15
-2.1478162e-14
-1.0285302e-16
7.6482464e-14
5.5587596e-16
-1.5631433e-15
6.3351892e-14
2.3720275e-14
-1.2617488e-23
0
2.5018784e-15
-8.2738555e-27
-1.4805912e-23
6.5104718e-25
8.172048e-23
-8.8747653e-23
3.3173442e-24
1.9151578e-15
2.0479978e-18
8.1818555e-17
1.0232696e-13
3.5055435e-13
1.0415321e-13
-9.5726319e-15
2.0999255e-14
9.2940083e-16
-3.6965789e-15
8.2430218e-16
1.7868586e-14
1.5046362e-15
-3.8708078e-18
8.6009862e-15
7.3138218e-14
0
-3.9328486e-20
7.0851767e-18
-4.3290666e-26
-3.982419e-23
1.7996375e-23
1.0218773e-21
-1.1193391e-21
2.753823e-23
0
0
9.3365782e-19
5.1547184e-14
7.0357161e-15
3.1228522e-14
3.2995664e-14
4.6454357e-14
0
-6.5080969e-16
4.8672567e-14
2.0993748e-14
3.6381877e-14
-1.2561655e-19
9.8336874e-15
6.9465747e-16
1.4299227e-23
7.821917e-21
-1.7256045e-19
-3.4627664e-25
9.3133642e-23
-7.8420122e-23
-3.6196267e-22
5.0879854e-22
-1.0370759e-21
0
1.1127995e-19
-3.8402901e-19
1.9222628e-14
6.3141914e-15
1.0694517e-14
4.4655088e-14
9.855824e-14
6.1804164e-14
1.1135163e-13
-1.5771253e-11
3.4550425e-14
1.5638857e-11
8.8196936e-14
2.3827137e-14
5.010232e-16
-4.3796587e-13
2.7793041e-12
2.0121134e-11
-3.0353264e-15
-3.6454744e-26
1.1543135e-12
4.265253e-13
-3.8126273e-26
1.1461377e-12
-8.4509077e-14
2.7845983e-12
2.0226004e-11
-1.1260565e-13
2.8224819e-14
4.7287189e-16
-1.5488954e-11
3.6965952e-14
1.5347917e-11
2.4356548e-12
-5.641653e-13
7.5069239e-12
-1.442878e-11
4.5966268e-13
1.7868676e-12
3.2847127e-13
0
9.5267459e-14
9.199254e-12
-8.3807949e-29
-3.7411519e-26
2.6560301e-26
0
-3.9395714e-26
2.6512637e-26
-4.6250185e-13
9.6836506e-14
9.3290043e-12
-3.8601463e-12
3.1342977e-12
3.5391871e-13
-2.5427029e-13
9.7773571e-12
-1.4682359e-11
7.9764676e-13
-1.2295798e-12
1.1247903e-12
-1.1263119e-13
-1.2443028e-15
1.0990363e-12
6.1295392e-13
-4.5737274e-28
3.2892704e-15
9.367074e-14
-1.6187462e-28
-3.9667289e-26
4.0291794e-26
4.6038529e-28
-4.2536063e-26
4.0811777e-26
0
4.0291728e-15
9.5685789e-14
-9.8665749e-13
2.0564588e-12
1.3942746e-12
-1.1718487e-12
6.4033727e-13
0
0
-5.0263711e-13
1.7678476e-13
-7.4335971e-13
0
7.279699e-14
1.7522519e-13
-1.439175e-25
2.0653843e-17
4.1343842e-15
-4.3729407e-28
-1.8225718e-25
5.3456144e-26
1.5872684e-24
-1.6703571e-24
9.3265003e-26
0
1.0633747e-16
4.6007891e-15
0
0
1.1276781e-12
-1.7493853e-13
1.8102882e-13
-5.9792561e-13
-1.8577984e-14
-2.4834061e-13
1.0463302e-12
0
-7.3591794e-16
1.1017831e-13
2.2376542e-14
-2.3707357e-24
1.5601911e-16
5.8488015e-16
-6.2442881e-27