/*--------------------------------*- C++ -*----------------------------------*\
  =========                 |
  \\      /  F ield         | OpenFOAM: The Open Source CFD Toolbox
   \\    /   O peration     | Website:  https://openfoam.org
    \\  /    A nd           | Version:  13
     \\/     M anipulation  |
\*---------------------------------------------------------------------------*/
FoamFile
{
    format      ascii;
    class       volScalarField;
    location    "0.12";
    object      alpha.water;
}
// * * * * * * * * * * * * * * * * * * * * * * * * * * * * * * * * * * * * * //

dimensions      [];

internalField   nonuniform List<scalar> 
51200
(
-1.068642e-56
-1.0871901e-56
-1.1130537e-56
-3.8936532e-69
-7.5923043e-71
-1.1144338e-71
-9.1209024e-75
-9.1364203e-75
-1.2785076e-54
-4.491303e-55
-8.0607191e-56
-3.8934709e-69
-7.6083744e-71
-1.3680638e-58
-8.5956647e-58
-2.4640991e-57
-2.4004322e-54
-8.3398508e-55
-1.2199692e-55
-3.8927909e-69
-7.6139111e-71
-2.1839797e-58
-1.6082211e-57
-4.6375499e-57
-3.1630009e-54
-1.0796305e-54
-1.273006e-55
-3.8914558e-69
-7.6142645e-71
-2.2919288e-58
-2.0808108e-57
-6.1031051e-57
-3.6608151e-54
-1.1513138e-54
-1.2839447e-55
-3.889452e-69
-7.6113094e-71
-2.3158596e-58
-2.2137393e-57
-7.0498541e-57
-3.7694651e-54
-1.1418557e-54
-1.3015366e-55
-3.886848e-69
-7.6067068e-71
-2.3495389e-58
-2.1925451e-57
-7.2394093e-57
-3.5672444e-54
-1.1215935e-54
-1.3457632e-55
-1.1240817e-58
-2.4143433e-61
-2.4316557e-58
-2.1496925e-57
-6.8309389e-57
-3.3054577e-54
-1.1210731e-54
-1.4087554e-55
-9.9966533e-57
-1.8453717e-59
-2.5479869e-58
-2.1440911e-57
-6.3141823e-57
-9.0425554e-34
-7.3301809e-34
-3.2885125e-34
-2.0702169e-38
-6.3061222e-40
-9.7721513e-39
-3.318029e-38
-4.8530171e-38
-8.0210661e-34
-5.061203e-34
-1.7582957e-34
-4.3868326e-39
-1.3399025e-40
-7.6569286e-39
-2.8698449e-38
-4.8899149e-38
-3.5860037e-34
-3.0382275e-34
-8.4414892e-35
-1.3219881e-39
-4.0454421e-41
-3.7219692e-39
-1.7700455e-38
-2.2175674e-38
-1.4103976e-34
-1.9068899e-34
-4.4263337e-35
-4.4979918e-40
-1.3791634e-41
-1.926887e-39
-1.1179525e-38
-8.9977032e-39
-4.6443079e-35
-1.2825119e-34
-2.5288124e-35
-1.6151265e-40
-4.9631269e-42
-1.0903256e-39
-7.5083531e-39
-2.9925398e-39
-2.9125598e-35
-8.8195437e-35
-1.5137288e-35
-5.9498401e-41
-1.8331669e-42
-6.4705047e-40
-5.1503677e-39
-1.783122e-39
-2.4484803e-35
-6.1644371e-35
-9.2694311e-36
-2.199033e-41
-6.7959348e-43
-3.9269867e-40
-3.5894436e-39
-1.4580867e-39
-2.0748064e-35
-4.4080763e-35
-5.744376e-36
-2.3302914e-37
-1.0260466e-41
-2.4056836e-40
-2.5605458e-39
-1.2202877e-39
7.8530953e-34
1.2758809e-34
1.1291212e-10
4.5475372e-10
3.109689e-11
8.986768e-12
1.617919e-33
1.1882246e-30
2.78376e-32
2.1906669e-25
2.5414752e-11
2.0878794e-12
2.391856e-13
2.4338552e-12
2.4802576e-25
2.8656045e-29
3.4285275e-25
3.3956383e-18
4.7251612e-12
1.5962634e-22
3.7806984e-24
6.0244111e-13
2.7548829e-24
1.0646326e-28
3.7324184e-18
7.4394853e-14
1.0973394e-12
2.3185334e-27
1.0067874e-29
1.9059615e-13
8.3143845e-15
-2.4126412e-34
3.1613948e-15
9.5183154e-14
3.0940961e-13
2.0172082e-33
-4.7610396e-37
7.0241524e-14
1.5309267e-14
3.2108567e-16
1.8314259e-14
8.2523376e-14
1.0288671e-13
-1.4937076e-38
0
2.8115164e-14
1.4740206e-14
2.4023092e-15
2.4522354e-14
6.1174696e-14
2.5496773e-14
0
-2.5477739e-55
9.9617253e-15
1.2290892e-14
5.0118328e-15
2.1663585e-14
3.7103237e-14
2.7387613e-15
2.5165239e-18
6.099769e-18
1.5212179e-15
8.5910274e-15
4.9360068e-15
6.2654759e-09
9.5658116e-19
2.5001391e-13
2.0742409e-09
1.7326736e-09
7.9186247e-14
5.421058e-19
7.0207723e-09
6.2912691e-10
8.5961438e-14
5.6592977e-14
7.7391019e-13
3.0117476e-17
1.9309433e-15
1.6119265e-16
1.0213799e-09
8.2486084e-11
1.1432266e-15
5.0100643e-16
8.181973e-19
2.4053213e-17
2.9350318e-17
1.5471064e-16
1.7300794e-10
1.4237151e-13
1.120483e-14
2.1436238e-16
9.3358106e-19
8.1092686e-19
1.2153629e-17
2.8645872e-15
8.1296222e-12
1.7642073e-15
9.2194064e-15
5.386195e-18
1.8917416e-18
3.4914593e-18
4.3095785e-18
1.3934054e-15
3.4920344e-16
2.535357e-14
3.3437521e-14
5.2156685e-14
1.5377585e-18
1.6360695e-17
1.3915584e-14
4.3282191e-15
2.8548841e-15
3.6553766e-14
4.7521228e-14
3.6416126e-14
9.5041074e-18
6.665864e-17
1.231708e-14
8.0510715e-15
5.9261748e-15
3.7225816e-14
4.2725556e-14
8.4328932e-15
4.7197132e-17
1.0906736e-16
4.8955368e-15
9.1923508e-15
7.6337265e-15
1.9342357e-11
7.2147226e-07
0.00010730033
1.7547772e-09
1.517344e-09
9.0325752e-05
4.5751423e-07
3.545064e-12
2.105214e-11
1.7559005e-07
5.5409668e-06
2.9511213e-12
2.1906888e-13
4.4418015e-06
1.0880246e-07
3.882564e-12
5.7200767e-10
1.5357792e-12
2.2367981e-12
5.8001068e-17
2.0385296e-16
8.7509287e-13
2.0312458e-12
4.9458168e-10
4.2797347e-10
2.2964456e-13
7.9250945e-14
3.4685692e-17
1.7240056e-16
3.9716156e-14
2.7390496e-13
6.525779e-10
1.4323611e-14
3.2302008e-14
7.8017811e-15
2.5589795e-17
1.3416128e-16
2.4278247e-14
6.0848825e-14
1.0662986e-13
2.988078e-15
1.2944081e-14
2.2203359e-15
4.035356e-17
1.388698e-16
1.5313372e-15
6.5005223e-15
1.8695528e-13
2.5028291e-14
7.7121713e-15
3.4820935e-15
7.2542237e-17
1.2707051e-16
3.6105343e-16
4.3262084e-15
9.8918695e-14
4.443462e-14
3.3913189e-15
6.0095685e-15
1.2042214e-16
1.1772536e-16
4.027471e-15
4.6603727e-15
3.1831532e-14
1.9007175e-11
6.2665543e-05
0.0001393421
5.6041793e-10
4.7878283e-10
0.00011654886
5.1729747e-05
3.5050055e-12
1.9338184e-11
2.7850929e-06
0.00010301343
8.7195783e-12
2.8894029e-13
8.8007009e-05
2.4998145e-06
3.5450639e-12
2.1052186e-11
7.2932777e-07
9.7667705e-06
5.8399363e-17
2.2621188e-16
9.0699733e-06
1.2006669e-06
3.8825647e-12
1.8971253e-11
2.6800311e-11
7.421469e-11
1.5401705e-15
1.2224175e-15
7.5374484e-11
6.1794794e-08
1.0640329e-11
9.1178183e-13
8.2498345e-12
4.3799139e-13
1.6369221e-16
2.3997162e-16
4.9942064e-12
7.2878756e-12
1.0524739e-09
1.3156137e-14
5.533308e-13
5.0161069e-13
6.9356191e-17
1.0917107e-16
9.8296806e-15
6.1048688e-13
1.7549264e-10
7.4239631e-15
9.5290454e-14
5.5770962e-17
5.5516885e-17
5.8865072e-17
2.1440388e-16
3.2489654e-14
6.5761643e-11
2.0549421e-15
1.3306231e-14
7.0706055e-16
4.3680899e-17
4.66555e-17
7.997614e-16
8.078608e-16
1.1095244e-11
1.9338187e-11
4.7270471e-05
0.00011950999
4.1444519e-15
1.7021007e-15
9.4746831e-05
3.3276488e-05
1.0128482e-10
1.1193661e-11
2.8007612e-11
0.00011869966
1.0301816e-16
4.8575627e-17
9.4341923e-05
8.5624866e-08
3.882564e-12
1.5018777e-11
1.496509e-10
7.2760571e-05
3.2090477e-17
3.8772411e-17
6.9498656e-05
3.2341082e-06
9.8045984e-12
3.0596758e-11
1.9415629e-09
6.2641304e-06
8.172986e-15
6.3615868e-15
1.2037395e-05
1.1904368e-06
3.9169571e-11
1.0251968e-07
5.4263377e-10
7.6312159e-11
1.1041434e-15
5.4649524e-15
9.4446922e-11
4.9434048e-10
5.564941e-11
4.1297451e-07
1.0979861e-10
3.0222036e-12
7.2649469e-17
1.3940106e-14
8.2090023e-15
1.1164805e-10
1.4193459e-11
2.8324654e-07
3.8793141e-07
1.6824902e-13
5.4096378e-17
1.0438256e-14
5.2413184e-15
1.204649e-11
4.9464661e-13
7.2452259e-08
3.8437205e-07
5.638113e-17
4.3871286e-17
6.2212716e-15
2.3818948e-15
1.541971e-12
1.555297e-13
2.4803294e-11
4.5067155e-08
5.4219521e-06
5.1702836e-17
4.2991602e-17
3.7708929e-06
3.3388379e-06
6.3966867e-05
0.00049627582
0.00024952344
1.1180461e-05
3.2053009e-17
2.9195145e-17
2.2625617e-05
7.180633e-05
5.1532615e-05
3.9912283e-09
0.00025628518
4.3075091e-05
2.9109511e-17
3.3827864e-17
7.2167407e-05
7.2176323e-05
1.2815812e-07
3.5297474e-05
0.0002528941
6.9474449e-05
3.1281433e-17
3.1205445e-17
4.1754504e-05
7.1677965e-05
1.7634994e-05
2.1133447e-05
0.00022079461
2.2824195e-05
3.4482643e-17
4.0568252e-17
8.1011284e-09
6.4424952e-05
6.411888e-05
2.3518133e-06
3.7017232e-05
1.0329374e-10
4.5742339e-17
5.1940115e-17
1.3592482e-15
6.338058e-05
2.6320345e-05
5.1406135e-07
8.0657121e-09
9.40748e-13
8.1884572e-17
1.1170136e-16
2.0865113e-15
5.8993331e-05
3.4944595e-05
2.5883531e-08
8.2509859e-11
9.0316409e-16
6.4277922e-16
4.4007236e-14
9.5753152e-13
3.3351508e-05
1.7855644e-05
4.5070638e-08
1.0808759e-08
5.5603121e-17
3.5953295e-17
2.9195145e-17
4.2991599e-17
1.4943421e-08
5.015977e-08
0.00049984411
1.20056e-05
3.5953318e-17
2.9049139e-17
2.8967985e-17
2.9195181e-17
2.4736819e-07
0.00036466089
1.7778332e-06
3.8147535e-06
5.3471051e-06
2.9009756e-17
2.9009111e-17
1.7937013e-05
1.4777209e-05
8.4505822e-05
3.1993511e-05
0.0002263786
2.3050306e-05
2.9109519e-17
2.9162361e-17
1.410089e-05
1.3179805e-05
0.00016842064
1.7517621e-05
0.00023034371
2.665014e-05
3.1281433e-17
3.1205447e-17
9.6200847e-14
5.8435714e-05
2.0728485e-05
5.5029812e-06
0.00010591427
3.2325371e-06
3.4516239e-17
4.0568377e-17
1.4857356e-16
6.1947819e-05
4.1307604e-05
2.2748511e-07
4.4603231e-09
4.1680211e-13
7.1480353e-17
1.4837817e-16
1.4926754e-15
6.1512394e-05
6.1614544e-05
2.4356454e-08
2.5836546e-12
2.0058502e-15
7.9378322e-15
2.3134367e-15
1.6380163e-14
3.6598103e-05
6.1590073e-05
3.5172359e-07
6.4692027e-08
0.00092046542
0.00087840049
0.0008847784
0.00093702799
5.3281258e-08
1.7584307e-07
0.0034784263
3.1655353e-07
0.00020275818
2.8970002e-17
2.8967654e-17
0.00020063914
1.6633191e-07
0.0011549174
0.000388328
9.1317852e-06
3.3757112e-08
2.8986192e-17
2.8967407e-17
7.0638859e-08
1.8226067e-06
0.00016232447
3.1904156e-06
0.00022004139
9.8221612e-10
2.9010448e-17
2.9009812e-17
2.3898907e-12
7.6751524e-06
0.00016437192
1.098958e-06
0.00011057778
1.1434178e-05
2.9547141e-17
3.0650234e-17
3.2634626e-13
5.5023494e-05
2.021547e-05
5.2678254e-07
2.8283441e-06
2.0304749e-06
4.2202296e-17
7.1112842e-17
9.3340956e-09
6.1124812e-05
2.273337e-05
2.4862761e-07
1.582079e-09
8.8286786e-11
3.4792695e-15
1.0622239e-15
3.8747895e-10
3.4910933e-05
2.3666233e-05
1.0377969e-05
7.1054798e-12
1.9003846e-14
5.3104574e-15
1.0077136e-14
1.6781067e-11
1.3051202e-06
1.301357e-05
1.3720634e-06
3.0010939e-07
0.024810843
0.0036270856
0.003609123
0.025053061
1.6631954e-07
1.1791574e-06
0.016844052
1.3560287e-06
0.0046166044
2.8968956e-17
2.8967192e-17
0.0046893065
1.1641817e-06
0.016466249
0.00069072541
0.0006194937
8.850361e-09
2.8972526e-17
2.8971735e-17
6.5740155e-10
0.0014006359
0.00028373875
4.5958814e-05
0.00016304357
5.9671866e-09
2.9084673e-17
2.9244803e-17
1.0254154e-08
0.00070224678
9.8728612e-05
0.00031904656
2.5658693e-07
1.5519481e-07
2.9847766e-17
4.1228321e-17
1.2600603e-10
1.3985094e-06
9.7230466e-05
0.00025671949
6.4917468e-08
3.8440276e-08
4.852327e-17
3.3042785e-16
2.2636071e-09
5.2306574e-06
1.3119451e-05
0.00032168741
0.00032522586
4.1800331e-15
3.5434991e-16
7.7893291e-15
1.2829754e-11
2.8543427e-07
2.2105342e-05
0.0001070046
0.00030593653
4.4164362e-14
4.4867149e-15
4.6014661e-13
6.6845305e-13
5.4838221e-11
2.239644e-05
2.6730048e-06
1.3519525e-06
0.089853824
0.0031050043
0.0030472128
0.090909147
1.1568271e-06
2.9513298e-06
0.014805674
2.672807e-06
0.028874382
2.8965283e-17
2.8965906e-17
0.029561429
3.3336049e-05
0.022446664
0.0027995321
0.000184044
4.7281845e-08
2.92576e-17
2.9061212e-17
6.1355504e-08
0.001730459
0.00077933476
7.9422412e-05
7.2830512e-05
5.443106e-08
2.961292e-17
3.0810687e-17
6.4466638e-08
0.00092116917
0.0002297666
0.00091371835
1.5322418e-07
1.2357159e-10
6.7843721e-17
1.0142593e-16
7.2235758e-10
1.6316559e-07
0.00055936705
0.00058975625
0.00021156367
7.9490375e-15
3.5551688e-16
1.8194342e-15
5.3737512e-14
2.6776332e-09
1.3783285e-06
0.00056020733
0.0014153634
9.8588541e-14
8.0834334e-14
4.7837504e-13
3.468067e-13
2.9128248e-12
0.00010315687
0.00012567279
0.00043254814
2.4734888e-11
1.3306791e-12
6.2652015e-13
1.2641693e-12
5.5431067e-11
0.0003114864
3.6416164e-06
2.6726519e-06
0.1461134
4.5391733e-17
4.6785355e-17
0.14591172
2.9513327e-06
4.4496028e-06
0.010906603
3.6416094e-06
0.07947961
4.5549364e-17
4.8464934e-17
0.080450329
4.4495684e-06
0.016057973
0.0030572477
0.00024747688
0.0028408075
3.3917567e-17
4.3904121e-17
0.0034133037
0.001238261
0.0028139093
0.00031483677
8.0372026e-05
5.6617897e-07
4.5698835e-17
5.122845e-17
7.4573854e-07
0.00044774557
0.00041984457
0.00098299611
1.0864037e-05
4.8394419e-09
3.0003508e-16
1.2779451e-16
3.695181e-08
1.7141656e-06
0.0011545818
0.00085005268
0.0017050913
5.5584638e-08
2.8220017e-15
1.8464948e-15
1.9440659e-13
3.2497661e-08
0.0013445447
0.0005138019
0.0015563422
1.097363e-07
4.2290389e-14
2.7605442e-14
3.1939305e-13
5.233671e-11
0.0017184854
5.5869311e-05
0.00012863963
2.5777572e-11
8.7704138e-12
1.2777372e-12
3.0631727e-12
0.00066368399
0.001109667
4.5376338e-06
3.6416086e-06
0.15262827
5.1674387e-17
5.3822524e-17
0.1531498
4.4495674e-06
5.4766701e-06
0.0086391004
4.5376338e-06
0.10945186
5.5662872e-17
5.900899e-17
0.11043139
5.4767441e-06
0.0094803636
0.0062647683
0.0014021513
0.018815662
4.3191136e-17
5.4203621e-17
0.020099524
0.0017810712
0.0071357786
0.00038120148
0.00034775866
3.3521702e-06
3.5519041e-16
1.2366699e-16
2.2971413e-06
0.00069893814
0.00062090616
0.00096381139
5.6670925e-06
6.5326636e-08
2.8863192e-15
1.089436e-15
5.6622853e-11
3.4609452e-06
0.001304017
0.0015463682
0.0013376084
1.5824401e-12
4.3552564e-14
2.7472091e-13
4.0105285e-13
1.5332393e-07
0.0023933185
0.00083526475
0.0030649832
1.6896401e-11
1.2528675e-12
3.1939124e-13
2.9047706e-12
0.0011511299
0.0023708371
0.00011848606
0.00041816648
3.2059356e-11
3.6438531e-10
3.0955414e-11
2.62127e-10
0.0019491018
0.0017979641
5.376101e-06
4.5376334e-06
0.15381789
8.1913408e-17
7.3358341e-17
0.15473496
5.4766701e-06
6.2697363e-06
0.0082161921
5.3761013e-06
0.1188109
9.5738829e-17
8.5809774e-17
0.11961856
6.2700961e-06
0.0067025753
0.0096056325
0.0033216235
0.038875865
9.4251984e-17
8.5176701e-17
0.040277266
0.0019543162
0.0073444405
0.00060076999
0.0011340816
4.9087844e-06
1.9005187e-15
3.0571845e-16
9.6962344e-06
0.00047688329
0.0011485037
0.0011479894
1.4547764e-05
7.3083456e-08
1.9716509e-14
3.6206876e-15
1.3240115e-11
0.00016441197
0.0019677944
0.0027571531
0.00043816356
8.1453882e-12
4.3636672e-13
8.0309913e-14
1.2781595e-12
0.0048283129
0.0033777061
0.001613478
0.005315734
8.593619e-11
1.2712017e-10
1.2701558e-12
4.6017757e-08
0.0048423116
0.0020516609
0.00035482043
0.0011193886
2.2187761e-10
9.3650533e-10
2.4784595e-10
7.7464013e-10
0.0015868494
0.00062351584
6.2030789e-06
5.376101e-06
0.16477517
0.0064794356
0.0066766202
0.16523349
6.2697409e-06
7.0218099e-06
0.0077495221
6.2030796e-06
0.12775851
8.8482392e-17
8.6505905e-17
0.12825725
7.0226721e-06
0.0064809198
0.0088132286
0.0047421061
0.053668957
9.3354314e-17
8.848243e-17
0.055220756
0.00080129641
0.0093758373
0.0022767495
0.0019950249
1.6693152e-05
7.5526595e-15
1.4360617e-15
1.3491979e-09
0.00088872242
0.0022713036
0.0018827753
1.9237485e-05
8.8293663e-08
2.7006839e-14
6.1037799e-15
2.2364693e-10
0.012098536
0.0012230787
0.0038479301
3.7516618e-07
5.3502613e-12
2.4471893e-13
1.1361947e-13
8.1126462e-08
0.0073655493
0.001571858
0.0027601526
0.00655655
3.9861365e-11
3.8622501e-11
1.7834472e-12
3.4147308e-08
0.0012549928
0.00064855748
0.00056127349
0.0019892307
9.8621715e-09
5.4958598e-10
3.7484344e-10
6.3257787e-10
0.0001166403
0.00013708376
7.0452972e-06
6.2030789e-06
0.20078091
0.011215581
0.011440921
0.19879452
7.0218217e-06
7.8747615e-06
0.0087281972
7.045655e-06
0.1498916
9.0715356e-17
8.8482392e-17
0.14969743
7.8747614e-06
0.0088901016
0.011233045
0.0056243678
0.065562358
9.451579e-17
9.0715357e-17
0.06784697
0.00016396851
0.014289238
0.0050955621
0.0023611599
1.8174357e-07
2.2734639e-15
7.9541414e-16
1.2712592e-08
0.012757217
0.0042099722
0.0033094266
1.2009291e-05
7.5047039e-08
6.5336663e-15
5.5565372e-15
1.1628628e-09
0.016067122
0.0004240946
0.007991852
4.5484152e-07
1.0161563e-12
1.4842333e-13
1.2199446e-13
3.4197489e-09
0.0033547522
0.00036317772
0.0052732166
0.010708683
1.0632021e-11
1.0164413e-12
1.8862515e-12
1.1968855e-08
1.1763039e-05
0.00021759293
0.00096776602
0.0038038891
8.4095156e-08
2.6760541e-11
3.7882554e-10
3.0915179e-10
9.4280372e-08
3.832888e-05
8.0104371e-06
7.0453006e-06
0.22864042
0.01504025
0.015521037
0.22328219
7.8747571e-06
8.8462826e-06
0.010931357
8.0121039e-06
0.17626788
9.2702639e-17
9.0715356e-17
0.17310685
8.8505687e-06
0.011160565
0.01528632
0.0060330759
0.083026724
9.5454534e-17
7.3933395e-16
0.086050132
0.0050149576
0.011565909
0.0065198624
0.0024720097
9.1386239e-08
5.971321e-16
9.9964653e-16
0.00078706952
0.019405218
0.0017191088
0.0051091167
1.0213946e-05
4.1012307e-09
6.198737e-15
5.717167e-15
3.9060522e-09
0.01943168
0.0016402767
0.012137322
5.534333e-07
2.5648974e-12
2.0213105e-13
2.9016058e-13
4.5422788e-10
0.0094825431
0.0014550232
0.010694459
0.021519209
3.2412717e-11
2.5713872e-12
2.1978147e-12
3.4139115e-08
5.505169e-07
0.0011033958
0.002811112
0.008416557
1.225173e-07
4.3289898e-11
2.7864975e-11
1.2744482e-10
7.4321015e-10
0.00017002948
9.8464469e-06
8.0104707e-06
0.24111918
0.02642435
0.026843072
0.2376513
8.8463433e-06
1.0317887e-05
0.03252653
9.8493939e-06
0.19719125
9.4966e-17
9.6098235e-17
0.19165294
1.0317914e-05
0.024517447
0.010168898
0.0085657587
0.1035916
1.0828567e-16
9.0609379e-15
0.10364002
0.013659858
0.0030036238
0.0056539875
0.0021793437
0.0018030025
3.3514987e-14
9.2606151e-15
0.0039041848
0.019817785
0.0020453384
0.016091954
5.2637842e-05
2.349323e-11
5.0793572e-14
1.3719375e-14
4.2379207e-07
0.01963631
0.0068551372
0.015972799
0.00517018
1.3208003e-11
7.2700247e-13
1.5407747e-13
5.3507543e-10
0.013192643
0.005806723
0.014064017
0.029412628
1.8906148e-10
1.3176743e-11
2.419978e-12
7.2450373e-08
0.00023461181
0.0026969878
0.0045108807
0.012349957
6.8420978e-08
2.1005371e-10
3.6870563e-11
1.2882122e-10
1.2378859e-08
0.00019038728
1.2525318e-05
9.8464574e-06
0.26270948
0.049164881
0.047524806
0.26382988
1.0317888e-05
1.4351018e-05
0.049839893
1.2526824e-05
0.21719873
1.0459793e-16
1.4213786e-16
0.22641738
1.4357358e-05
0.08365422
0.011161136
0.0064447848
0.12198166
3.9602363e-16
3.7997338e-14
0.12848901
0.0198203
0.0028199196
0.0086478551
0.0022907476
0.0066215959
7.9602444e-13
2.8945054e-14
0.008096943
0.019821317
0.0024626182
0.023339153
0.0097321322
4.6087725e-11
4.523845e-13
3.7798438e-14
1.9694448e-06
0.01765141
0.011354718
0.016244056
0.031945485
1.945696e-11
1.5687603e-12
4.986528e-13
2.4668288e-09
0.0035666472
0.011365329
0.013546327
0.030884807
6.6428185e-07
1.9421903e-11
8.8745517e-12
8.6670364e-09
1.1697481e-05
0.004576264
0.0044806014
0.0087409285
3.1103847e-08
3.0306742e-10
1.5147625e-10
1.7357711e-09
1.9827535e-08
0.0037024505
1.4577717e-05
1.2525286e-05
0.29044419
0.07812809
0.076184477
0.26456412
1.4350426e-05
1.7607356e-05
0.037487028
1.4590354e-05
0.23732671
1.8500755e-16
3.2816689e-16
0.26074937
1.7607354e-05
0.039448141
0.012670166
0.0065238373
0.13954328
4.4816075e-16
9.8206233e-14
0.16908671
0.019679629
0.0042642687
0.0090529339
0.013956461
0.014448039
3.0166232e-12
8.8039468e-14
0.019445381
0.018881647
0.013601275
0.023651155
0.032777147
2.5913875e-09
8.2607603e-13
2.731279e-13
4.2414845e-07
0.0050511251
0.029357129
0.020559315
0.033839869
4.7320084e-11
2.1554104e-12
8.2861817e-13
5.4858756e-11
5.7778316e-06
0.0053782213
0.01679587
0.030529631
1.2982555e-06
2.408734e-11
1.347009e-11
2.2663846e-10
5.2842174e-08
0.0062693025
0.0051980284
0.0040016985
1.4937748e-08
3.9054605e-10
2.6743531e-10
3.1983773e-09
8.9077323e-09
0.0097612242
1.6059532e-05
1.457777e-05
0.30648139
0.11071941
0.11990494
0.2650002
1.7607354e-05
2.0022059e-05
0.032102291
1.605953e-05
0.25455186
4.4815722e-16
7.631327e-16
0.26703513
2.0022023e-05
0.063461309
0.01395574
0.0040315837
0.15653413
1.0154953e-15
3.4431818e-13
0.197988
0.013112987
0.0083294188
0.0094028041
0.030907734
0.025605442
7.417246e-12
1.8952191e-13
0.0407955
0.010600683
0.015818929
0.012556876
0.036533349
4.1559186e-06
1.5803484e-12
3.3475408e-13
1.8439037e-05
0.0018753447
0.029447114
0.01771858
0.03431869
1.3688723e-10
2.323354e-12
7.8030217e-13
9.0050336e-11
0.0057894469
0.012909365
0.015938663
0.016643559
1.110627e-06
2.3313523e-11
1.2006146e-11
2.1379434e-10
0.011437803
0.019022406
0.0072823114
0.0001239231
8.8352156e-09
4.4391724e-10
2.140152e-10
3.2766765e-09
0.017228625
0.018749228
1.8995298e-05
1.605953e-05
0.31850307
0.15232025
0.18934585
0.22012945
2.0022023e-05
0.00019840339
0.09279513
1.8995143e-05
0.27973511
1.0154755e-15
2.0620411e-15
0.26938504
0.0066033949
0.12279914
0.01022977
0.0098177778
0.18225795
9.3861567e-13
9.7910235e-13
0.21280728
0.011791365
0.0093250524
0.0095665676
0.040561228
0.038641574
1.4849787e-11
3.9217768e-13
0.068539699
0.010493279
0.010266348
0.036789325
0.037239001
9.7016065e-06
2.8437839e-12
3.9931316e-13
7.1930482e-10
0.021728491
0.029405163
0.0072010189
0.011642816
1.418175e-11
2.3339502e-12
6.8411044e-13
4.6254893e-05
0.024178152
0.016568055
0.0071054437
0.00061890669
3.4165447e-07
1.4339791e-11
8.3596312e-12
1.0861194e-07
0.024147599
0.020607877
0.0066655613
2.278802e-06
3.8613731e-09
2.3258861e-10
1.6563124e-10
1.8765614e-08
0.013113893
0.013036253
0.0001634691
1.8995143e-05
0.3297175
0.20570613
0.24145995
0.3313602
0.018314573
0.088840381
0.16909057
0.013652323
0.30646253
3.6086537e-15
4.4518541e-15
0.33108363
0.010912429
0.031054209
0.011234663
0.025247131
0.21729732
5.5083327e-12
3.1953467e-13
0.2542117
0.047669386
0.022554715
0.016939963
0.014817683
0.053646121
3.1762627e-11
8.46966e-13
0.1046099
0.058821748
0.0077309798
0.049838347
0.0090293386
1.520052e-09
2.9783332e-12
8.3285542e-13
1.4871175e-10
0.039063793
0.015106913
0.011705656
0.041816304
2.1236464e-11
2.1303572e-12
9.9215157e-13
1.9784895e-06
0.014073859
0.014629469
0.010578336
0.015232963
8.6885703e-07
6.2983385e-12
6.6454485e-12
8.608068e-09
0.007492835
0.01471675
0.0070066445
4.6400507e-08
2.6136611e-08
8.7630685e-11
2.3468916e-09
2.1573506e-09
0.00079016961
0.013307641
0.00013459334
2.5284135e-05
0.34017866
0.24968206
0.24584023
0.38339752
0.028562195
0.0037413014
0.1795948
0.017113063
0.3001771
5.9009991e-15
5.8255615e-15
0.38281873
0.0099870181
0.057848864
0.012776962
0.015969224
0.2339332
5.4121213e-13
5.9009991e-15
0.33623939
0.004404329
0.086398919
0.020685313
0.015497094
0.084553984
4.4520045e-11
1.3169083e-12
0.15556845
0.14087602
0.0073447985
0.05061392
0.041877729
5.7882782e-10
1.9813159e-12
1.2002021e-12
0.00019619055
0.077853129
0.0071184033
0.016306622
0.045249401
2.5341088e-05
1.969129e-12
1.306447e-12
1.9054093e-10
0.0057664101
0.0049021714
0.0098975312
0.02708758
1.2910463e-06
1.122095e-11
7.6881278e-12
2.2175297e-10
2.0453035e-05
0.0056804774
0.0038993112
2.6399195e-05
4.5617485e-08
8.7410497e-09
7.6336297e-09
3.5503406e-09
4.2750415e-09
0.0092138728
5.6647837e-05
3.1516584e-05
0.36721737
0.2904841
0.27814751
0.38369481
0.0035752985
0.0036080446
0.16850551
0.0078723381
0.28039213
8.0903139e-15
5.9013965e-15
0.38330711
0.0036080446
0.038219199
0.0349001
0.0080619718
0.2303011
3.868297e-09
0.00019128927
0.38311317
0.0039181129
0.088636766
0.017347391
0.068506479
0.11820776
5.7862024e-11
2.9848442e-12
0.2240914
0.093181254
0.0077631856
0.051069359
0.065683402
0.0014815622
2.080753e-12
1.7672361e-12
0.0082363431
0.092668372
0.010066223
0.01040271
0.026965007
1.2884729e-09
9.6264109e-12
1.704695e-12
4.86626e-07
0.048914866
0.0092559068
0.0092527047
0.0057155253
4.0786374e-07
1.0203079e-08
5.9847719e-12
3.2617481e-10
0.0011741733
0.0018012445
0.0025188536
2.4370777e-08
2.3952239e-08
1.3687007e-07
6.9785529e-09
8.1718316e-09
3.4998018e-06
0.0015833058
3.8489487e-05
3.5559559e-05
0.44157174
0.32521616
0.42109252
0.38404922
0.0035752375
0.0035752985
0.1008292
3.8489351e-05
0.29819051
2.494312e-08
0.0052453387
0.38378057
0.0035752985
0.017095058
0.10985758
0.010460714
0.20742815
3.7726451e-11
0.005130889
0.38302346
0.0036958536
0.040379951
0.01721092
0.076718679
0.11345104
6.9632598e-11
4.561206e-12
0.29859639
0.058283299
0.0080608116
0.020145875
0.026181015
0.0030227637
1.7365798e-11
7.0463395e-12
0.028687073
0.0918725
0.009138679
0.02870415
2.0226841e-05
3.929946e-10
8.0375089e-12
5.4005806e-12
6.2930896e-06
0.079928256
0.010709843
0.016718555
0.0034175165
1.0644118e-08
2.4310855e-08
8.2765479e-12
7.9194154e-08
0.0089615794
0.0037825299
0.02116753
0.0052281974
2.0669459e-08
2.3362513e-07
2.2501285e-09
6.701477e-09
8.2905054e-05
8.5113083e-05
5.521219e-05
3.8489351e-05
0.49129346
0.36469971
0.57755296
0.38282745
0.0035752985
0.0035752989
0.099937544
0.0012823582
0.39044692
2.5204057e-06
0.043348199
0.38296539
0.0035752985
0.021249788
0.11054142
0.036830499
0.21872442
7.2465839e-11
0.033826662
0.38282302
0.0037435676
0.015871238
0.017167865
0.02138252
0.097436105
7.6116967e-11
4.527351e-12
0.38233428
0.029947045
0.0082896437
0.027380768
0.02011478
0.0018482975
5.2764787e-11
2.6890703e-11
0.08064257
0.091069239
0.014086376
0.060495602
0.065996246
1.5350096e-09
3.2440341e-11
1.1255548e-10
2.2715717e-06
0.073823327
0.014555315
0.024540862
0.035541292
5.044566e-07
1.2453638e-09
9.9275069e-11
6.8441893e-09
0.007101886
0.0066063699
0.024873937
0.0069743548
3.4943519e-08
1.3277789e-07
3.0046158e-10
1.0074931e-09
1.345431e-05
5.7067805e-05
0.00029956174
4.0805525e-05
0.49205279
0.42786019
0.59723108
0.37092602
0.0044863203
0.0050293625
0.13952588
0.0092883935
0.49141855
2.4778029e-05
0.096487406
0.19174256
0.0036782661
0.043427892
0.14255453
0.026948687
0.31039802
0.00024124006
0.03775804
0.3784234
0.04643239
0.026494308
0.017148306
0.038491971
0.11090431
1.1913605e-09
0.00028142456
0.38096569
0.053773864
0.0083503101
0.033326881
0.10204553
0.002696613
1.1591617e-10
2.7207366e-11
0.1888042
0.082067412
0.027407882
0.042319669
0.10162205
1.9213141e-06
6.7134754e-11
8.0186217e-10
2.5168505e-06
0.042407078
0.042164162
0.024917312
0.043034979
9.5229866e-07
8.6578202e-11
4.0715485e-10
2.3615903e-08
0.0010724795
0.0098245146
0.024138867
0.0059779188
1.0290725e-07
1.1880615e-08
9.5182118e-10
1.2623974e-09
1.1979579e-07
0.0089736628
0.00025359727
4.355086e-05
0.49257571
0.53827195
0.59751931
0.35907326
0.027416638
0.0044407027
0.13847789
0.0054976124
0.49228285
0.004211387
0.22287031
0.12529209
0.0039390652
0.047359624
0.18704405
0.010476125
0.48751781
0.011489633
0.030060837
0.36132604
0.032759874
0.11456964
0.017167865
0.10469287
0.19990049
1.0707781e-08
3.7635953e-07
0.36637556
0.10762362
0.04120798
0.017161306
0.10616253
0.0051714604
6.4038406e-11
3.0561142e-11
0.14262788
0.063369635
0.024317162
0.013866722
0.084893485
5.5252909e-09
6.7215309e-11
6.1447181e-09
6.2468502e-09
0.0046150694
0.07123938
0.011399908
0.021336155
3.1551002e-07
7.6053661e-11
1.056515e-08
1.2414736e-06
1.6250403e-06
0.025834058
0.010604543
0.0023690681
1.2287872e-07
5.0270725e-09
1.5646002e-09
1.7627959e-09
1.3471718e-08
0.031193084
0.015574963
0.1354555
0.45090519
0.5979355
0.59772123
0.42446521
0.040124779
0.0044036576
0.039635201
0.0056528943
0.38893244
0.16454305
0.51095161
0.17250419
0.0042129599
0.015202331
0.14169631
0.013782579
0.48758121
0.019710756
0.052928539
0.41875347
0.02411093
0.11692489
0.098770308
0.098375038
0.38217954
4.1398467e-05
3.7765865e-07
0.38503204
0.085627819
0.16117499
0.013342383
0.064503596
0.048188663
1.2406478e-06
1.5482401e-08
0.1933014
0.066876319
0.030577249
0.013273099
0.037714598
3.2470425e-07
3.3055547e-08
1.6377058e-08
0.00059365428
0.019160834
0.073098474
0.0066834776
0.0048709904
4.595554e-09
4.1380359e-10
4.8099828e-09
3.2588964e-09
0.0017871551
0.03865928
0.008162574
8.3044578e-06
5.0147716e-08
3.8019841e-08
1.7182806e-09
1.7182807e-09
0.0015998001
0.032697587
0.031036521
0.40073932
0.25864148
0.59850504
0.57601213
0.41242227
0.13562556
0.0043872033
0.0083202615
0.08051079
0.15770949
0.53312127
0.59723347
0.29677004
0.0043375973
0.0043595201
0.065484334
0.025123905
0.47331246
0.092673271
0.14855314
0.42043564
0.05545349
0.046247884
0.18306998
0.028058164
0.46756813
0.0015679962
4.0331906e-06
0.38130717
0.061283521
0.16117499
0.11469156
0.17211746
0.19156902
8.3547517e-07
1.5353826e-07
0.19025866
0.13890025
0.072347635
0.050860263
0.057653025
2.3922553e-07
4.4812575e-07
2.7732695e-07
0.0018150162
0.13363892
0.079725795
0.013776343
0.0045915459
6.1143953e-07
1.1255652e-09
1.484503e-09
2.0112403e-05
0.057656651
0.071547111
0.00913493
1.6169765e-07
4.9803353e-07
1.0165454e-07
4.9974911e-07
1.0056693e-06
0.02846082
0.041197876
0.089727682
0.46826628
0.16207307
0.59855504
0.5082929
0.29172462
0.21469583
0.016036993
0.007298441
0.19584151
0.16187947
0.59850127
0.59785536
0.15199582
0.0043540933
0.0044725468
0.045406701
0.019498811
0.40533649
0.30648063
0.41626084
0.40712404
0.069275324
0.036370181
0.18306998
0.038125223
0.46451222
0.014932741
0.036584071
0.34726295
0.099173371
0.16117579
0.18306998
0.18240817
0.14561759
5.1581304e-07
6.1129187e-07
0.16648037
0.16587485
0.15132888
0.070584702
0.12494241
2.9539764e-07
3.209332e-09
6.4382639e-09
0.0008770291
0.16456683
0.067052229
0.018134574
0.017049909
2.1506033e-05
1.4843847e-09
2.4293459e-09
1.7647828e-05
0.14333386
0.067619706
0.011638055
0.00092815151
9.6050636e-07
1.3743385e-07
1.3952035e-06
3.1232285e-06
0.050809515
0.037789683
0.23402868
0.48641367
0.23386565
0.59860953
0.43522307
0.26942479
0.29895249
0.073689628
0.0073365964
0.26237067
0.16987387
0.58336069
0.48163502
0.099678311
0.01172474
0.0045106315
0.010878866
0.01281328
0.30043935
0.56557488
0.59472375
0.41310658
0.085769074
0.042180081
0.14370703
0.085744197
0.44032962
0.098387927
0.193119
0.33755247
0.18466056
0.16032329
0.18240811
0.18110846
0.052436626
2.3676834e-06
0.0057570111
0.12222873
0.15770005
0.15979689
0.054656109
0.17343224
1.7356531e-06
2.0435376e-08
5.7535214e-07
3.4371445e-06
0.1616531
0.063344708
0.017895617
0.041496868
2.107425e-05
2.3606599e-09
4.141153e-09
5.8167917e-06
0.11905424
0.044540477
0.013546709
0.0047865639
9.1083991e-07
2.0593686e-07
1.2947338e-06
5.5927177e-06
0.034268532
0.021283918
0.17591257
0.48694431
0.45619501
0.60500736
0.40847433
0.34910112
0.35107092
0.12976983
0.013903384
0.29831077
0.23498671
0.60480932
0.23853513
0.15403561
0.096261408
0.0045508566
0.0046359243
0.021696096
0.29094527
0.60463214
0.60392951
0.52303516
0.086868542
0.077799011
0.016765203
0.094648899
0.28588223
0.26722438
0.50362139
0.39061813
0.19513614
0.15672457
0.059937601
0.17425523
3.4519457e-06
0.0090767998
0.12810786
0.14109266
0.075501574
0.15941383
0.12659378
0.17181456
2.6909492e-06
3.0585885e-06
3.3935218e-06
4.4087033e-07
0.066602942
0.061614524
0.070806831
0.053288037
1.7554449e-05
1.1150619e-08
8.9722249e-08
6.5754221e-07
0.056606789