/*--------------------------------*- C++ -*----------------------------------*\
  =========                 |
  \\      /  F ield         | OpenFOAM: The Open Source CFD Toolbox
   \\    /   O peration     | Website:  https://openfoam.org
    \\  /    A nd           | Version:  13
     \\/     M anipulation  |
\*---------------------------------------------------------------------------*/
FoamFile
{
    format      ascii;
    class       surfaceScalarField;
    location    "0.12";
    object      alphaPhi.water;
}
// * * * * * * * * * * * * * * * * * * * * * * * * * * * * * * * * * * * * * //

dimensions      [0 3 -1 0 0 0 0];

internalField   nonuniform List<scalar> 
150720
(
0
0
0
0
0
0
0
0
0
0
0
0
0
0
0
0
0
0
0
0
0
0
0
0
0
0
0
0
0
0
0
0
0
0
0
0
0
0
0
0
0
0
0
0
0
0
0
0
0
0
0
0
0
0
0
0
0
0
0
0
0
0
0
0
0
0
0
0
0
0
0
0
0
0
0
0
0
0
0
0
0
0
0
0
0
0
0
0
0
0
0
0
0
0
0
0
0
0
0
0
0
0
0
0
0
0
0
0
0
0
0
0
0
0
0
0
0
0
0
0
0
0
0
0
0
0
0
0
0
0
0
0
0
0
0
0
0
0
0
0
0
0
0
0
0
0
0
0
0
0
0
0
0
0
0
0
0
0
0
0
0
0
0
0
0
0
0
0
0
0
0
0
0
0
0
0
0
0
0
0
0
0
0
0
0
0
0
0
0
0
0
0
0
0
0
0
0
0
0
0
0
0
0
0
0
0
0
0
0
0
0
0
0
0
0
0
0
0
0
0
0
0
0
0
0
0
0
0
0
0
0
0
0
0
0
0
0
0
0
0
0
0
0
0
0
0
0
0
0
0
0
0
0
0
0
0
0
0
0
0
0
0
0
0
0
0
0
0
0
0
0
0
0
0
0
0
0
0
0
0
0
0
0
0
0
0
0
0
0
0
0
0
0
0
0
0
0
0
0
0
0
0
0
0
0
0
0
0
0
0
0
0
0
0
0
0
0
0
0
0
0
0
0
0
0
0
0
0
0
0
0
0
0
0
0
0
0
0
0
0
0
0
0
0
0
0
0
0
0
0
0
0
0
0
0
0
0
0
0
0
0
0
0
0
0
0
0
0
0
0
0
0
0
0
0
0
0
0
0
0
0
0
0
0
0
0
0
0
0
0
0
0
0
0
0
0
0
0
0
0
0
0
0
0
0
0
0
0
0
0
0
0
0
0
0
0
0
0
0
0
0
0
0
0
0
0
0
0
0
0
0
0
0
0
0
0
0
0
0
0
0
0
0
0
0
0
0
0
0
0
0
0
0
0
0
0
0
0
0
0
0
0
0
0
0
0
0
0
0
0
0
0
0
0
0
0
0
0
0
0
0
0
0
0
0
0
0
0
0
0
0
0
0
0
0
0
0
0
0
0
0
0
0
0
0
0
0
0
0
0
0
0
0
0
0
0
0
0
0
0
0
0
0
0
0
0
0
0
0
0
0
0
0
0
0
0
0
0
0
0
0
0
0
0
0
0
0
0
0
0
0
0
0
0
0
0
0
0
0
0
0
0
0
0
0
0
0
0
0
0
0
0
0
0
0
0
0
0
0
0
0
0
0
0
0
0
0
0
0
0
0
0
0
0
0
0
0
0
0
0
0
0
0
0
0
0
0
0
0
0
0
0
0
0
0
0
0
0
0
0
0
0
0
0
0
0
0
0
0
0
0
0
0
0
0
0
0
0
0
0
0
0
0
0
0
0
0
0
0
0
0
0
0
0
0
0
0
0
0
0
0
0
0
0
0
0
0
0
0
0
0
0
0
0
0
0
0
0
0
0
0
0
0
0
0
0
0
0
0
0
0
0
0
0
0
0
0
0
0
0
0
0
0
0
0
0
0
0
0
0
0
0
0
0
0
0
0
0
0
0
0
0
0
0
0
0
0
0
0
0
0
0
0
0
0
0
0
0
0
0
0
0
0
0
0
0
0
0
0
0
0
0
0
0
0
0
0
0
0
0
0
0
0
0
0
0
0
0
0
0
0
0
0
0
0
0
0
0
0
0
0
0
0
0
0
0
0
0
0
0
0
0
0
0
0
0
0
0
0
0
0
0
0
0
0
0
0
0
0
0
0
0
0
0
0
0
0
0
0
0
0
0
0
0
0
0
0
0
0
0
0
0
0
0
0
0
0
0
0
0
0
0
0
0
0
0
0
0
0
0
0
0
0
0
0
0
0
0
0
0
0
0
0
0
0
0
0
0
0
0
0
0
0
0
0
0
0
0
0
0
0
0
0
0
0
0
0
0
0
0
0
0
0
0
0
0
0
0
0
0
0
0
0
0
0
0
0
0
0
0
0
0
0
0
0
0
0
0
0
0
0
0
0
0
0
0
0
0
0
0
0
0
0
0
0
0
0
0
0
0
0
0
0
0
0
0
0
0
0
0
0
0
0
0
0
0
0
0
0
0
0
0
0
0
0
0
0
0
0
0
0
0
0
0
0
0
0
0
0
0
0
0
0
0
0
0
0
0
0
0
0
0
0
0
0
0
0
0
0
0
0
0
0
0
0
0
0
0
0
0
0
0
0
0
0
0
0
0
0
0
0
0
0
0
0
0
0
0
0
0
0
0
0
0
0
0
0
0
0
0
0
0
0
0
0
0
0
0
0
0
0
0
0
0
0
0
0
0
0
0
0
0
0
0
0
0
0
0
0
0
0
0
0
0
0
0
0
0
0
0
0
0
0
0
0
0
0
0
0
0
0
0
0
0
0
0
0
0
0
0
0
0
0
0
0
0
0
0
0
0
0
0
0
0
0
0
0
0
0
0
0
0
0
0
0
0
0
0
0
0
0
0
0
0
0
0
0
0
0
0
0
0
0
0
0
0
0
0
0
0
0
0
0
0
0
0
0
0
0
0
0
0
0
0
0
0
0
0
0
0
0
0
0
0
0
0
0
0
0
0
0
0
0
0
0
0
0
0
0
0
0
0
0
0
0
0
0
0
0
0
0
0
0
0
0
0
0
0
0
0
0
0
0
0
0
0
0
0
0
0
0
0
0
0
0
0
0
0
0
0
0
0
0
0
0
0
0
0
0
0
0
0
0
0
0
0
0
0
0
0
0
0
0
0
0
0
0
0
0
0
0
0
0
0
0
0
0
0
0
0
0
0
0
0
0
0
0
0
0
0
0
0
0
0
0
0
0
0
0
0
0
0
0
0
0
0
0
0
0
0
0
0
0
0
0
0
0
0
0
0
0
0
0
0
0
0
0
0
0
0
0
0
0
0
0
0
0
0
0
0
0
0
0
0
0
0
0
0
0
0
0
0
0
0
0
0
0
0
0
0
0
0
0
0
0
0
0
0
0
0
0
0
0
0
0
0
0
0
0
0
0
0
0
0
0
0
0
0
0
0
0
0
0
0
0
0
0
0
0
0
0
0
0
0
0
0
0
0
0
0
0
0
0
0
0
0
0
0
0
0
0
0
0
0
0
0
0
0
0
0
0
0
0
0
0
0
0
0
0
0
0
0
0
0
0
0
0
0
0
0
0
0
0
0
0
0
0
0
0
0
0
0
0
0
0
0
0
0
0
0
0
0
0
0
0
0
0
0
0
0
0
0
0
0
0
0
0
0
0
0
0
0
0
0
0
0
0
0
0
0
0
0
0
0
0
0
0
0
0
0
0
0
0
0
0
0
0
0
0
0
0
0
0
0
0
0
0
0
0
0
0
0
0
0
0
0
0
0
0
0
0
0
0
0
0
0
0
0
0
0
0
0
0
0
0
0
0
0
0
0
0
0
0
0
0
0
0
0
0
0
0
0
0
0
0
0
0
0
0
0
0
0
0
0
0
0
0
0
0
0
0
0
0
0
0
0
0
0
0
0
0
0
0
0
0
0
0
0
0
0
3.0288812e-40
5.6923832e-40
6.3514287e-38
6.1689543e-87
1.9790367e-45
6.0196817e-45
3.0288012e-40
7.9506389e-51
4.1860823e-50
1.9789869e-45
4.5237578e-57
1.3722497e-55
7.9504972e-51
-2.8505943e-51
4.9246908e-56
2.8505496e-51
-8.5135541e-49
1.9723125e-50
8.2878158e-49
-1.1939667e-43
3.2392221e-45
1.161566e-43
3.3149221e-40
1.4122659e-38
-1.1096601e-38
4.8277151e-42
3.3486253e-44
9.0239273e-40
2.5144599e-47
9.5405695e-47
1.8554935e-46
4.8334538e-42
1.2626388e-51
3.7897357e-51
9.5442609e-47
2.0425982e-57
8.2617749e-56
1.2626914e-51
-7.6568319e-51
5.0070963e-55
7.6563825e-51
-1.9387707e-48
6.6721706e-50
1.8841153e-48
-8.918527e-44
3.3082215e-45
8.9114332e-44
1.3358561e-40
4.2047176e-39
2.3246517e-43
1.6595848e-46
4.8447739e-48
3.3315449e-44
3.6726709e-52
1.8988273e-48
4.8130252e-48
3.9991434e-46
4.5122763e-53
1.6513973e-53
1.9025203e-48
1.171609e-58
6.6122106e-57
4.519955e-53
-2.3340928e-50
6.5745904e-54
2.3334807e-50
-3.2627825e-48
1.0894804e-49
3.1982408e-48
-1.3187228e-43
6.888332e-45
1.4970627e-43
5.0146838e-43
3.0507925e-40
4.8883203e-44
2.2845139e-50
1.1580251e-51
4.820771e-48
2.4907199e-55
1.7386254e-50
9.3493888e-52
5.2026566e-48
3.9135739e-54
2.8402974e-53
1.7553079e-50
1.5542096e-59
4.9512096e-58
3.9191788e-54
-5.1608399e-53
1.7113638e-55
5.8015512e-53
-4.530751e-49
8.209019e-51
5.1814823e-49
-1.746281e-45
5.4148156e-48
9.2360056e-45
7.9294701e-47
6.1615209e-43
4.2069893e-47
5.341761e-54
8.2058107e-55
1.1518627e-51
1.0649606e-58
2.7777058e-54
4.7792592e-55
9.3692809e-52
1.1419992e-55
2.7881186e-56
3.6869849e-53
2.4301156e-61
3.4489689e-59
1.1465739e-55
-1.4463784e-55
1.6648142e-56
3.1505251e-55
-9.8553084e-51
2.8504691e-52
1.8307674e-50
-1.2290001e-49
1.8669881e-51
5.8150197e-48
2.8614762e-50
7.9129713e-47
1.3474202e-50
1.9074376e-57
4.0375754e-58
8.1827328e-55
2.2876487e-61
2.1380945e-57
3.2719828e-58
4.7736851e-55
5.0072855e-58
1.17442e-58
2.4451335e-55
3.1036943e-61
1.8797964e-59
9.8770357e-58
-4.6717663e-55
1.4891554e-56
4.9898298e-55
-1.0246445e-54
1.0188508e-55
3.0087531e-52
-4.635443e-53
1.279505e-54
1.9110384e-51
2.7778429e-53
2.852903e-50
1.1601072e-53
1.1106085e-60
1.7200136e-61
4.0248558e-58
6.2513402e-65
3.4229273e-60
2.8868958e-61
3.2459779e-58
1.0116239e-61
7.0405552e-62
1.2131079e-58
1.1530873e-62
2.9946813e-62
2.8489954e-59
-5.2158486e-59
2.3793058e-59
1.6429878e-56
-8.6391493e-58
8.6765691e-59
1.0272745e-55
-2.4094162e-56
1.1487852e-57
1.3015865e-54
9.7778436e-57
2.7738692e-53
6.7474631e-57
8.6593127e-64
1.5826678e-61
1.5390195e-65
1.2854235e-62
1.5611313e-63
2.7878038e-61
9.2226242e-63
1.6178628e-64
6.980827e-62
1.9966272e-63
2.5256287e-65
7.1529757e-62
1.6639632e-63
-5.7396399e-62
2.3332163e-59
4.4209744e-61
-9.7928119e-61
8.5205739e-59
2.4613832e-60
-3.0697135e-59
1.1423028e-57
3.7106971e-59
9.4375061e-57
4.5565954e-60
3.0508865e-58
2.7546237e-30
4.976359e-30
4.3134111e-28
1.2176726e-58
4.2719688e-31
1.2261606e-30
1.163945e-28
1.8240016e-28
4.6691239e-28
4.8460411e-26
2.7811099e-28
4.8161084e-27
6.8255122e-25
-5.9854209e-54
2.2736707e-28
3.000194e-26
-7.1734342e-49
5.0691278e-53
1.5454608e-48
-5.5577802e-44
2.5297652e-48
1.7173115e-43
1.1262223e-43
1.5592325e-38
-1.469834e-39
4.492268e-32
3.7889398e-35
8.8426691e-30
2.7520072e-34
6.940504e-33
0
1.8962554e-30
2.9208716e-30
6.7659719e-32
7.1460669e-28
3.2315845e-30
6.3456559e-31
7.6706704e-27
-3.3569914e-53
1.5069227e-32
3.5322e-28
-1.5929351e-48
3.0589158e-52
3.4761767e-48
-4.054471e-44
7.3194478e-48
1.2965266e-43
1.1763998e-43
4.2046719e-39
1.9287405e-46
5.628429e-35
0
1.4806624e-32
3.6033554e-40
8.338405e-37
8.4334524e-39
1.4508448e-34
2.9891761e-34
6.4207512e-36
6.7365378e-32
1.3724952e-34
9.943071e-35
6.3465182e-31
-5.905963e-50
4.4279348e-36
1.5202049e-32
-1.9637768e-48
1.9833249e-51
5.1006089e-48
-9.0161197e-45
1.9514159e-47
1.5870824e-43
5.3120175e-42
3.0011896e-40
1.2084214e-43
1.7195536e-37
4.2950112e-39
4.8169088e-35
2.8257083e-42
5.9790815e-39
3.0881141e-40
1.2795136e-36
5.2922163e-38
1.7807242e-39
6.380434e-36
4.0562045e-38
2.4637776e-38
9.9421872e-35
-6.8065184e-47
5.820444e-40
4.4714227e-36
-4.0904771e-46
9.3619262e-50
3.4140714e-46
-1.4524756e-41
3.0758564e-45
1.4530527e-41
9.6587116e-41
3.5702306e-39
1.8583325e-42
1.4722647e-41
2.1485911e-42
4.2781325e-39
7.5152975e-45
2.84935e-42
1.8058568e-43
5.9509902e-40
1.4386232e-41
9.8701343e-43
1.7682014e-39
5.0642201e-42
8.4970118e-42
2.4639273e-38
-4.5295716e-50
2.0418413e-43
5.8690444e-40
-1.1161049e-45
8.0781665e-49
1.1153643e-45
-1.6272234e-42
3.2603848e-44
2.529491e-42
1.2609179e-42
4.2485691e-40
9.1054406e-44
3.7939156e-45
7.8302844e-46
2.1436727e-42
1.1184471e-47
1.0523259e-45
9.7436972e-47
1.8323245e-43
5.963694e-45
5.2158993e-46
9.8161668e-43
1.7318864e-45
2.0958073e-45
8.4996181e-42
-2.2589489e-50
9.5396155e-47
2.0582085e-43
-9.0370785e-48
5.6678267e-49
2.0122101e-47
-1.1312708e-44
3.6093821e-46
1.1210477e-43
7.5659559e-46
3.0911512e-42
2.53412e-47
2.8757069e-49
2.3988578e-49
7.8255312e-46
4.2612527e-50
5.6813072e-49
6.513746e-50
9.7092547e-47
3.0040361e-48
2.4306678e-49
5.1892782e-46
7.9530915e-49
1.2789181e-48
2.1068152e-45
-3.9333667e-51
5.7611095e-50
9.6137753e-47
-1.9001454e-48
1.1678814e-49
3.7026174e-48
-2.0842002e-48
2.8496441e-49
6.4126635e-46
3.7492317e-49
7.5782246e-46
9.2602447e-51
1.7231506e-52
2.0020968e-49
2.5113814e-52
3.9252679e-50
2.610603e-52
6.34317e-50
1.6170154e-51
1.8442355e-51
2.3621332e-49
5.5705185e-51
7.9435086e-52
1.2560596e-48
2.531602e-50
-2.8120197e-52
5.7690029e-50
1.1612203e-51
-6.0803852e-52
1.2934743e-49
3.1137105e-51
-9.9038104e-52
2.7834619e-49
7.0049523e-51
3.6510499e-49
5.1761582e-54
8.8270988e-51
4.1906366e-30
7.5671414e-30
5.449151e-28
2.6502555e-33
6.2527418e-28
8.2900328e-28
5.003335e-26
1.1359067e-26
2.3789756e-26
2.9306833e-24
4.4436323e-25
4.6470912e-24
6.931193e-22
-4.4627361e-24
3.973827e-25
3.0643121e-23
0
4.6934014e-23
5.9850999e-21
-1.806206e-22
2.0367769e-27
1.8061856e-22
3.5594925e-22
5.0744521e-20
-4.3098504e-38
1.4036761e-31
1.0681702e-32
1.4031116e-29
1.855495e-33
1.5204803e-29
6.3343789e-32
1.8091425e-27
1.4922218e-28
1.4366589e-30
3.7407108e-26
4.5058855e-27
2.5802283e-28
7.1630867e-24
-6.0451647e-26
4.3007126e-29
7.4519856e-25
-1.7013883e-29
2.7040065e-27
7.1142234e-23
-1.7426194e-24
9.4485002e-29
1.7445447e-24
1.1384193e-26
5.6939682e-22
4.4039054e-28
5.5944731e-33
1.0249765e-33
1.8195801e-30
1.9976571e-34
6.9843842e-34
1.2942475e-35
1.3871016e-31
1.1863101e-32
2.0911125e-34
1.4950341e-30
1.6176852e-31
6.461261e-32
2.5891211e-28
-2.6855252e-31
1.0605884e-32
4.3484652e-29
-1.2717346e-28
0
2.8316641e-27
-4.2289523e-29
8.5415651e-28
5.8971215e-26
9.0426793e-31
1.1340998e-26
9.4441526e-34
1.4916109e-36
3.4690196e-36
3.2783714e-32
4.6956538e-36
4.9347791e-38
2.5824653e-39
1.5676438e-35
1.7677765e-36
4.8357358e-38
2.1373611e-34
3.9112843e-35
1.3257122e-35
6.4664541e-32
-4.2886687e-34
5.2304633e-39
1.1078883e-32
-1.0971137e-29
2.2919288e-31
2.4532721e-29
-5.6286902e-33
5.7081044e-30
4.5249425e-27
1.4211936e-34
8.9849591e-31
1.2147984e-36
3.2990246e-40
4.5423382e-39
2.1912027e-35
3.7202239e-39
1.1476143e-41
5.2231102e-44
3.5029687e-39
4.1337967e-40
1.5130157e-41
4.9711874e-38
4.5245744e-39
3.7373619e-39
1.3274715e-35
-9.3437782e-36
6.0734794e-38
1.0578257e-35
-4.1380927e-32
6.1427029e-35
4.1450763e-31
-5.0945646e-36
2.1622295e-33
1.4840446e-29
2.8317304e-38
1.3699671e-34
3.6358841e-40
1.0251956e-44
1.3399156e-42
4.5426263e-39
4.6773541e-43
1.3516358e-44
2.2193398e-44
4.3119956e-42
1.2662343e-43
6.0434232e-45
1.5995291e-41
2.3517344e-42
7.666159e-43
3.7441993e-39
-1.8489164e-39
2.6391444e-41
1.0736161e-37
-6.4589043e-36
4.589306e-38
6.7946998e-35
-8.3937422e-40
8.185452e-37
2.1549529e-33
8.0348843e-42
2.7474809e-38
1.5400867e-43
1.0407278e-46
1.8097126e-44
1.3229092e-42
1.4318856e-46
1.8860347e-46
4.3577574e-47
1.0389474e-43
1.6131041e-47
4.5012705e-48
6.7360172e-45
8.9032032e-46
3.7999851e-46
7.6756725e-43
-2.0467726e-42
1.3353689e-44
2.8717406e-41
-5.1681383e-39
2.2565988e-41
5.1035189e-38
-3.4661928e-43
4.0313957e-40
8.1297459e-37
1.9079984e-47
7.6895083e-42
5.8765055e-47
2.1966969e-47
1.3514487e-44
3.7915134e-48
1.7023405e-45
1.4317145e-50
4.8928834e-47
1.5383525e-48
9.4049853e-51
4.6031616e-48
7.4166026e-50
4.2909493e-49
3.7402317e-46
7.2147096e-48
-1.4170109e-45
1.445436e-44
2.5832084e-46
-2.4928572e-42
2.4667819e-41
4.3611424e-43
-1.9691461e-46
3.8812185e-40
1.2525249e-41
5.713412e-45
9.3842264e-49
1.3551115e-46
1.0233467e-30
1.9668998e-30
1.573552e-28
0
3.7935917e-28
4.1114577e-28
2.9769963e-26
1.9182923e-25
3.1290717e-25
4.4440301e-23
5.5043268e-24
3.5327974e-23
3.1874923e-21
-1.3118915e-23
3.5275589e-27
4.9439224e-23
-2.020815e-21
5.0223342e-22
3.8744008e-20
-1.2831646e-21
7.0593503e-21
9.1297942e-18
1.5531193e-21
1.9276485e-19
-5.2447672e-24
4.2185639e-32
1.5061736e-31
9.1604226e-30
3.6821204e-33
2.4999282e-29
7.8828335e-31
3.0645851e-27
2.3126717e-27
1.613541e-29
5.2999183e-25
5.9698839e-26
1.5697186e-27
5.9247538e-23
-1.5314768e-26
1.1689772e-26
9.8286048e-25
-4.3239023e-23
3.0720186e-26
8.9821047e-22
-1.4730299e-23
0
2.6112883e-20
3.510971e-26
2.4878576e-21
0
4.0322605e-33
9.1885207e-30
1.8712656e-27
1.8159882e-27
2.6417141e-33
1.1310995e-32
1.6843108e-30
7.5479151e-32
1.9437567e-33
1.755654e-29
3.2825975e-30
1.4023855e-31
1.8253578e-27
-4.3794805e-30
1.1166083e-30
1.0944845e-26
-1.1369235e-27
4.7289534e-31
3.4723229e-26
-1.7221475e-28
9.7239797e-29
7.3541582e-25
3.9470556e-33
4.6281909e-26
4.889497e-31
5.0547896e-31
3.9713126e-30
4.220655e-28
1.457534e-31
2.8208023e-35
1.8851302e-32
1.2689822e-30
9.1326904e-36
2.3324789e-38
2.1788159e-33
6.9168922e-34
5.4731313e-35
2.0447628e-31
-1.4428949e-33
6.108472e-39
1.1298475e-30
-2.5913407e-29
7.8486101e-31
8.0579893e-29
-1.6310515e-32
1.2749658e-28
1.2237373e-26
7.2917109e-33
3.7373546e-30
4.0940499e-35
8.5811198e-33
6.404423e-34
3.323763e-30
9.8679707e-34
1.1304479e-36
3.064825e-35
4.7319672e-32
7.8572638e-39
1.0637538e-38
2.5225817e-36
6.3431108e-38
1.2527106e-38
6.794345e-35
-9.9338686e-35
9.6238532e-38
1.1773102e-34
-5.2857068e-32
7.0079377e-34
1.5864841e-30
-2.2426762e-34
0
2.8495752e-29
6.0277855e-35
7.6407231e-32
2.076472e-37
1.0624215e-37
1.4992266e-37
6.400236e-34
1.8008391e-37
8.5960654e-38
1.4917992e-38
4.0652312e-35
4.6571438e-41
2.0244584e-39
1.5452427e-37
8.8584833e-42
1.3515573e-43
1.6310043e-38
-9.3393158e-38
5.6500313e-41
1.4407647e-37
-7.2402931e-36
1.2644098e-37
6.9076772e-34
-1.0050591e-37
0
3.6936053e-33
5.575679e-39
2.8337837e-35
1.2771881e-40
3.9587771e-41
2.6391106e-41
1.498099e-37
5.2946131e-41
4.7502529e-42
3.2701301e-42
1.4951099e-38
2.043117e-42
2.5396487e-43
9.2778804e-40
2.9493684e-45
8.8733818e-46
2.9013501e-42
-1.259583e-41
1.0320037e-43
5.2773797e-40
-2.574123e-39
5.4170532e-41
1.8022097e-37
-1.2206424e-41
0
1.2285929e-36
1.6736439e-42
5.5686353e-39
7.1325021e-45
8.2834639e-45
2.49131e-41
4.5191539e-44
1.4367015e-42
3.2101889e-45
3.18976e-42
8.5423524e-44
7.7475455e-47
2.5046927e-43
6.5837345e-45
1.2390068e-48
1.3153456e-45
2.4898108e-47
-7.2419284e-45
1.2302961e-43
1.9869813e-45
-1.8796988e-42
7.935975e-41
1.3868029e-42
-3.2385132e-45
5.2064365e-40
1.4213272e-41
1.6507695e-42
4.5987608e-47
2.5526499e-44
1.4690569e-31
3.3405984e-31
2.489969e-29
1.2840396e-32
1.2780803e-30
1.211566e-30
2.9635658e-26
1.4772555e-24
3.736498e-24
4.2563766e-22
1.7228199e-23
6.9842455e-23
6.8525163e-21
2.383417e-24
3.9658507e-23
8.9560985e-20
-8.1489526e-20
9.5893721e-23
7.5397898e-21
-1.1677181e-21
2.2600836e-19
4.0149442e-17
7.9762388e-24
1.9585595e-19
-3.4492641e-23
1.0067384e-23
8.9190731e-23
1.0378666e-20
1.6093631e-23
1.4871572e-28
5.2510165e-28
1.0069643e-23
2.9652305e-26
1.6561452e-28
5.6982407e-24
3.3475102e-25
4.3098799e-27
1.6843922e-22
3.7520777e-26
7.9000012e-27
2.6160303e-22
-3.3933705e-22
2.5074078e-24
1.7976477e-21
-4.4471838e-23
8.7150956e-24
4.1075537e-19
6.1340374e-23
6.4638222e-21
5.50181e-25
3.3612918e-26
8.0737312e-26
2.2534222e-22
5.5976662e-25
9.39934e-31
4.6903491e-28
4.3832532e-26
4.3353056e-31
1.2561739e-34
1.8373064e-28
1.2300641e-29
4.0300855e-31
6.1231544e-27
3.3149055e-30
0
7.5299375e-27
-7.8045563e-27
2.2568711e-27
2.8155391e-23
-8.8774948e-26
9.7821279e-29
9.5383123e-24
3.1549233e-27
7.9070287e-23
1.9822154e-28
1.0594287e-28
0
4.7523324e-26
8.8066709e-29
1.6530574e-32
1.1444161e-31
6.6816988e-28
1.1110691e-34
2.0744686e-34
5.9164289e-32
2.3006762e-33
1.0894533e-34
6.0521032e-31
1.5192389e-34
4.954265e-39
1.1325919e-30
-2.0107399e-29
1.2864791e-32
2.3762888e-27
-3.8612492e-30
1.5457269e-28
1.628344e-26
1.9699484e-31
3.1547257e-27
1.0198331e-32
7.0954337e-33
1.7332578e-34
5.4139622e-30
6.6030325e-33
1.7409688e-35
0
1.9878527e-31
4.8126717e-37
5.6408217e-38
6.3575481e-34
1.3841298e-37
4.1519883e-39
1.7724344e-34
3.548433e-38
1.1077869e-37
1.0059214e-34
-1.7547352e-31
1.8631012e-32
1.5598746e-30
-3.7673851e-34
1.3743695e-32
1.7427112e-28
3.2788702e-38
2.7337309e-31
1.4238546e-36
1.1076568e-37
1.8081253e-37
8.1328655e-34
1.122233e-36
7.3128226e-38
6.3778429e-39
5.5427453e-35
1.0841618e-40
0
3.6590132e-37
3.0221741e-41
1.700147e-42
2.0572279e-38
1.8998966e-41
4.0732413e-39
1.3220833e-37
-1.7196976e-35
3.7767578e-36
1.4040428e-32
-5.8065152e-38
3.3362872e-36
1.7378481e-32
4.997003e-38
7.4132916e-35
1.0114557e-39
4.2981193e-41
4.3014815e-41
3.3033472e-37
2.5371303e-40
3.6415091e-42
2.0259533e-42
2.1370055e-38
1.5493205e-42
0
6.8037218e-40
8.765073e-45
7.8379253e-47
6.1409204e-42
-8.8496149e-41
1.4591515e-42
3.1992191e-39
-4.565084e-39
1.412181e-39
3.9496644e-36
-3.0263072e-40
1.0505668e-39
4.5631835e-36
9.5155129e-41
4.6347639e-37
5.7130761e-42
8.8292629e-45
6.3825256e-41
3.7315448e-43
6.1382138e-42
1.9279989e-45
5.0301523e-42
1.1181798e-43
3.8163543e-47
2.4419826e-43
4.2745748e-45
6.4592976e-48
5.4759744e-45
8.3419021e-47
-7.9774274e-44
1.4089406e-42
1.8787352e-44
-1.5852185e-42
1.4711201e-39
2.1208628e-41
-3.4993495e-44
1.5371265e-39
3.5961177e-41
9.3910919e-41
9.6717642e-46
8.9360699e-43
1.7464663e-19
2.2906682e-19
3.6952105e-17
8.0467424e-20
0
2.4570584e-24
1.7464421e-19
4.989811e-24
5.0710891e-24
1.8143301e-21
7.5798134e-23
2.7393123e-23
2.9401981e-21
1.5841975e-21
6.6841301e-21
1.6607497e-18
-5.1032647e-20
4.3465204e-25
6.016186e-20
-1.7918569e-19
1.0211034e-18
7.1984013e-17
6.7716762e-21
5.0290394e-17
-1.5272753e-20
1.2730601e-21
0
3.3410165e-19
1.8526804e-22
2.2417924e-25
9.9507574e-23
1.2124527e-20
8.1400964e-26
1.4730913e-27
2.7151713e-23
1.2544752e-24
3.4502931e-26
2.1824416e-22
1.0928358e-23
3.1013363e-25
1.3336018e-20
0
2.1409328e-25
1.813711e-21
1.4876061e-21
2.3458272e-23
1.4586151e-18
0
1.3837092e-20
1.5732745e-24
2.1805253e-25
0
2.2215665e-22
1.298123e-24
8.8262972e-26
3.8722059e-27
6.9973528e-23
1.6339815e-28
9.9175096e-31
4.4155706e-26
1.3637295e-28
2.7240912e-30
6.7750873e-26
4.6329453e-28
2.6653507e-29
3.1728938e-25
1.0391579e-26
3.8971189e-25
3.2700322e-23
1.5818054e-26
8.0134934e-29
3.2995599e-23
3.9275692e-27
1.2056847e-22
5.2916929e-28
1.314009e-28
0
3.7164197e-26
8.5896648e-29
2.0028947e-30
4.9633105e-33
4.6478747e-27
8.5606889e-33
1.8407225e-35
3.0305827e-30
1.2884361e-32
2.9570422e-34
3.3248173e-30
6.1664464e-32
3.6989883e-33
2.7809097e-29
1.4343545e-29
1.2051851e-29
1.1212445e-25
4.4167763e-30
1.6586578e-28
1.9421659e-26
4.1322857e-29
9.6177811e-25
3.3840599e-30
8.7723009e-33
7.4833057e-34
1.2189647e-29
3.3272685e-32
4.5880048e-34
2.4785811e-33
1.8124465e-30
2.4593352e-36
2.7622315e-35
4.2368219e-33
8.8376028e-37
7.3739097e-38
4.7628234e-34
6.5060437e-36
5.75127e-37
3.7939407e-33
1.7145613e-33
4.7002288e-35
1.3607838e-29
6.2640401e-32
1.0742251e-32
2.0038752e-28
5.1678542e-33
4.1657282e-29
2.9004976e-35
2.9445876e-36
6.9001721e-38
1.5545047e-33
4.4645317e-36
2.0847451e-35
1.1110933e-36
7.8713547e-33
2.8615131e-39
9.4769741e-39
7.7035663e-35
1.75719e-40
7.2803865e-43
9.7078136e-38
3.0137281e-39
5.3346485e-41
7.0689451e-37
2.0678434e-36
1.1250129e-34
7.7071881e-33
1.6514934e-35
0
2.2182239e-32
1.1466436e-36
5.2859339e-33
7.3784734e-39
1.1868981e-39
1.8851573e-40
3.9865013e-37
1.1109139e-39
2.8608663e-39
4.0004421e-40
1.1410379e-36
1.1602317e-42
2.2724997e-42
1.1326013e-38
1.2349132e-43
4.0101804e-43
6.470708e-41
2.0363959e-41
1.2868121e-40
5.9445523e-39
9.517239e-39
1.0043809e-38
4.792908e-35
1.8428268e-39
0
5.3344226e-36
9.9128425e-41
1.6120897e-36
3.7729094e-42
2.9090956e-43
2.6323717e-40
9.5665952e-43
1.1822208e-41
1.4920505e-42
4.0152516e-40
5.7178176e-42
1.0000622e-45
3.9696888e-42
5.1890675e-44
1.7891957e-45
7.7425471e-43
9.5782988e-45
9.2998718e-44
1.0913042e-40
1.2951124e-42
2.023121e-42
1.1305727e-38
1.8796174e-40
6.2635943e-43
1.7225023e-39
4.1219534e-41
1.919052e-40
1.24919e-45
2.9430203e-42
0
-3.2996053e-19
5.1557411e-17
1.2529435e-17
8.924548e-20
1.7708465e-19
3.7456632e-17
1.9520082e-21
3.0234885e-21
2.4411293e-19
2.3542543e-23
1.0396613e-24
5.1491114e-21
-1.7260765e-18
5.0776917e-20
4.1748957e-18
-6.8487543e-18
5.1647165e-18
1.3218706e-15
-1.4802179e-18
-3.0834979e-19
6.6005765e-17
2.2327918e-20
7.4446883e-17
0
3.974049e-21
0
2.0744688e-19
0
1.7712458e-21
0
3.849801e-19
2.965774e-24
1.4836567e-25
7.8586331e-21
1.4390837e-23
3.6466705e-24
4.7480338e-22
0
2.6818686e-24
7.5798227e-20
3.380616e-20
4.080715e-22
1.3290042e-17
0
0
9.9274299e-19
0
6.4249421e-20
2.0706039e-23
2.6565752e-25
0
1.8054347e-22
-2.6869751e-23
2.2662752e-26
0
2.5670541e-23
8.4402449e-28
1.6772439e-29
2.1401819e-25
3.2899654e-26
4.7472564e-28
9.5216983e-24
8.3480982e-29
1.7006095e-28
3.0320636e-24
3.2550321e-25
1.8493849e-29
4.4046887e-22
9.0591426e-26
0
4.5181003e-23
0
2.6774162e-22
9.1437443e-28
1.1742346e-27
0
5.8116189e-25
-4.5989004e-27
1.2707754e-30
1.1384099e-30
1.3299384e-26
7.9892835e-32
2.1153559e-33
2.1292313e-29
4.7518202e-30
9.8266505e-32
1.1218668e-27
4.2740887e-31
1.6512374e-32
2.0221215e-28
2.1063671e-28
5.8341567e-28
7.9504799e-26
4.8406611e-29
0
2.2579162e-26
4.1267944e-29
1.5193788e-24
9.1731504e-30
5.4092207e-30
2.0712188e-31
1.6132657e-27
-5.2301069e-32
9.626413e-32
1.7171164e-32
2.27662e-28
4.8232084e-34
2.6313899e-33
3.7166806e-31
2.8267085e-34
2.1215565e-35
9.894437e-32
1.7361378e-34
4.339213e-36
2.0412686e-32
1.0294068e-30
7.1901345e-32
5.1103288e-28
1.135139e-31
0
4.7293887e-29
5.9112025e-33
8.3030988e-29
1.4884943e-34
2.2887272e-34
6.3080211e-35
2.0847145e-31
1.827611e-35
3.3276404e-34
2.4801049e-35
1.550177e-31
1.1464766e-36
1.0428075e-36
7.1892021e-33
1.4237391e-38
6.5512287e-39
2.245082e-35
8.0104497e-39
4.6392311e-40
5.1286298e-36
8.3598653e-35
6.9617348e-38
7.9482726e-32
3.5091069e-35
0
1.4008966e-32
3.8512269e-37
1.1233844e-32
7.7728065e-38
4.0222726e-38
2.3582802e-38
6.3374353e-35
7.6668401e-38
2.7500289e-38
9.0529343e-39
2.5961274e-35
7.6203116e-40
4.0096392e-40
1.3836518e-36
1.6527036e-41
3.4000952e-44
7.3882449e-39
2.1883617e-40
5.8904852e-40
7.7583745e-38
3.5659482e-38
1.2951725e-37
1.6393974e-35
9.7448682e-39
0
4.988797e-36
2.6950309e-40
2.0138692e-36
1.0824952e-41
1.1195227e-41
2.3484701e-38
4.5636184e-41
4.4675718e-40
9.1504534e-42
9.3622813e-39
1.3905545e-40
5.9070673e-44
4.0987525e-40
5.1785457e-42
1.8916275e-44
5.8530703e-42
9.3769097e-44
3.7097221e-42
7.4700914e-40
1.5494749e-41
4.3737056e-41
3.3615236e-38
4.9557815e-40
1.2870308e-42
1.9340505e-39
3.9186299e-41
4.5534465e-40
8.4221755e-45
7.716929e-42
0
1.8508972e-18
4.4312194e-16
0
4.2893947e-19
6.9153811e-19
3.8875862e-17
0
3.7090178e-21
1.8810617e-19
9.880969e-20
2.9500195e-20
2.0530852e-17
-1.0225993e-18
2.7079145e-22
5.2794559e-18
-1.1183446e-17
2.9556954e-17
1.3491075e-15
-1.4833364e-18
-2.6886254e-19
2.2919133e-17
-1.4952317e-22
7.7211691e-17
3.458642e-19
5.8138464e-20
2.1763067e-22
4.991967e-19
-8.594308e-22
2.5195447e-20
6.2841836e-23
1.0898902e-18
3.6892922e-22
4.6454396e-24
4.4183618e-20
4.6809325e-22
0
4.6842855e-20
0
3.6323684e-23
6.0546294e-20
7.3742659e-19
9.5490205e-21
1.192452e-16
2.4655549e-22
0
1.7149223e-18
0
7.5703915e-19
0
2.5661732e-24
7.0553236e-27
4.0070003e-22
-5.1500991e-24
9.9205127e-25
7.9866861e-29
9.0089302e-23
1.4723715e-25
1.5046542e-27
2.6230473e-23
1.2576255e-25
0
2.0947032e-23
6.7978941e-26
9.1280292e-29
2.2302548e-23
1.9393742e-23
4.5880539e-25
9.969939e-21
7.154298e-25
0
2.9554976e-22
0
9.4818054e-22
0
1.3202491e-26
2.0162606e-26
4.7077163e-25
-1.34602e-27
2.5969716e-29
2.4433835e-28
2.7437777e-26
8.2156027e-30
1.6715075e-32
1.5466407e-27
9.5299609e-30
2.9703346e-32
1.4149617e-27
1.5392638e-30
4.2746606e-36
3.0149199e-28
2.135961e-27
2.4913491e-30
5.3658328e-25
8.8616545e-29
0
1.3536763e-26
0
1.2492611e-24
3.2912734e-30
2.0374912e-28
8.3806027e-30
1.8799408e-26
-3.9571051e-31
4.3037597e-31
5.7600358e-31
1.2284755e-27
1.0010957e-33
2.3604966e-32
3.2694943e-30
2.1372673e-34
1.8443617e-37
1.2948753e-31
2.3279387e-34
9.9376024e-36
2.643723e-32
1.5397239e-30
2.2370848e-30
2.6582385e-28
5.5531416e-32
0
8.0121966e-30
4.3503505e-33
1.1698898e-28
3.9586979e-34
4.791755e-32
2.7123616e-33
6.7727834e-30
-3.274521e-32
3.1109132e-33
3.1925484e-34
1.7228156e-30
1.7423219e-35
2.2717372e-35
8.5793118e-32
2.5052788e-37
2.505988e-37
6.2624671e-35
1.057285e-36
4.8374218e-37
9.2518225e-35
3.8714073e-33
0
8.9327856e-31
1.7427108e-35
0
7.1794927e-33
1.0203184e-36
1.560284e-32
7.6333781e-37
1.9962042e-36
1.5712714e-36
2.8043754e-33
-3.3268381e-35
2.2800159e-37
1.4488629e-37
3.4699966e-34
3.2524676e-38
6.7169175e-39
2.6187119e-35
2.1974773e-39
9.9471979e-41
5.2381531e-37
5.0035796e-39
1.1717492e-40
1.0976147e-36
4.8566669e-37
3.1781799e-40
1.8745423e-34
2.4366047e-38
0
5.4408699e-36
3.0788445e-40
3.0580852e-36
4.1792495e-41
6.1791521e-40
1.5766046e-36
-6.5273931e-39
5.8141196e-38
7.8840062e-41
1.526256e-37
2.6595234e-39
1.8296967e-42
7.1223525e-39
9.4657462e-41
3.3029911e-43
1.0605723e-40
1.1502304e-42
3.6650651e-42
3.6433789e-40
8.3573817e-42
3.0850652e-40
1.1858085e-37
1.6013108e-39
5.3292013e-42
8.8501779e-39
1.2389012e-40
7.5499051e-40
8.2966085e-45
1.3814733e-41
1.9347482e-17
-1.561276e-16
2.5786737e-15
5.1349949e-16
2.1410151e-19
0
3.7887154e-17
3.5401069e-19
8.9018283e-22
5.6860447e-21
3.4842303e-18
3.8520806e-20
8.4395923e-17
5.9469444e-18
-4.7004222e-20
2.6661949e-15
-4.5940147e-20
5.5984753e-17
1.328504e-15
-2.4694918e-19
-7.9924056e-21
3.2586918e-18
-5.7411276e-20
1.7754594e-17
0
3.8947446e-20
-3.0331327e-21
2.154756e-18
-1.5781488e-16
4.9032616e-20
1.5651442e-22
1.2115518e-18
1.5592427e-21
2.731634e-21
1.0598975e-19
1.1772982e-21
0
1.3381449e-19
0
-3.4105835e-24
1.4717892e-20
1.9532176e-18
2.3612706e-21
1.5578914e-16
1.1451698e-21
9.0238668e-23
3.9163985e-18
0
3.8098433e-18
0
1.8805209e-24
1.9086339e-24
5.9342768e-19
-5.9606133e-19
2.9878746e-24
1.336237e-24
2.4403264e-22
3.5002914e-23
3.5354505e-25
3.649141e-21
4.2379043e-26
0
7.2996688e-23
3.6555646e-27
-3.3116881e-28
1.419906e-23
5.3587156e-23
0
1.2277887e-20
1.2332114e-22
1.16626e-24
2.3183451e-20
0
6.272302e-21
7.6273378e-24
3.117544e-26
2.847251e-26
1.2087296e-22
-1.1867557e-22
6.728514e-28
1.209841e-27
1.2582902e-24
2.4425699e-27
1.2163197e-29
3.5590598e-25
2.1934331e-30
2.2999769e-31
3.3046879e-27
9.1551239e-32
-3.3417402e-34
7.1499511e-29
8.1920394e-27
4.4059028e-30
6.5312241e-25
7.4903376e-27
2.3901699e-28
1.1806529e-24
0
5.9067361e-25
1.5361363e-30
4.5788217e-25
7.7215754e-25
2.5261106e-23
-1.4923902e-25
6.9983645e-28
3.7682195e-26
1.6972078e-24
6.4186538e-32
1.7289681e-29
1.9707133e-27
3.2994524e-34
1.1707693e-34
4.3466522e-31
7.2065669e-34
2.8998686e-37
6.5294503e-32
2.0006628e-30
0
2.3171249e-28
1.1346731e-30
3.7619531e-32
2.4790614e-28
0
1.2081215e-28
2.8524244e-33
5.5852005e-26
1.8922666e-26
3.8783195e-24
-1.0489535e-28
7.3107694e-29
7.5157756e-28
2.2603979e-25
8.6836383e-33
3.2949803e-30
1.7251882e-28
2.2187483e-36
1.046727e-34
8.8119802e-33
4.3651302e-36
1.2825103e-38
6.356576e-34
2.7708762e-33
0
2.7365241e-31
2.1228585e-34
6.2428317e-39
4.7720135e-32
4.2267889e-36
5.8049077e-32
2.0612037e-36
6.5086233e-28
1.2616705e-29
6.1352031e-26
-6.1840046e-32
6.9931251e-31
2.7699847e-31
2.8797029e-27
3.5202483e-34
1.4541237e-32
8.6000059e-30
9.1001898e-39
6.478353e-36
4.5254243e-34
1.4054449e-38
1.9129704e-40
1.9596637e-36
4.4625329e-36
0
1.082357e-33
4.5419881e-38
6.9487985e-39
1.689444e-35
1.496956e-42
7.330801e-36
2.3741311e-41
2.4135381e-31
3.1723134e-29
-3.4960028e-34
7.5255457e-31
2.9518168e-34
8.1431036e-31
1.5241923e-32
4.2412006e-35
2.9561793e-32
6.2455198e-34
1.3810639e-39
3.0404228e-35
6.3183966e-37
7.2811485e-42
1.90207e-39
1.7376332e-41
2.1799336e-39
5.7801857e-37
6.6973054e-39
7.5915287e-40
3.2142748e-37
4.1659243e-39
2.1398813e-39
1.9682125e-44
3.6472911e-41
4.7417597e-17
1.2596703e-16
1.7677622e-15
3.9639618e-16
8.1376373e-19
0
4.3883477e-17
7.7370704e-19
4.1374872e-22
5.2279084e-21
7.9250879e-18
1.9829883e-18
1.1845848e-16
-2.999774e-16
5.1694679e-16
1.0221644e-14
-1.2363006e-18
-3.9521205e-17
7.4806605e-16
-3.5787434e-22
-1.7512397e-19
2.1399979e-18
5.5616708e-22
1.7708726e-17
-7.0523586e-23
7.2430424e-18
0
4.6986056e-16
-1.1523108e-16
0
0
8.0177913e-18
8.4938222e-21
2.451069e-21
8.4735193e-20
7.2232114e-20
0
3.05292e-18
1.1228551e-17
1.2319721e-19
9.6490307e-16
6.8213785e-20
-1.4108771e-20
1.2578841e-16
6.3325479e-23
-4.8481577e-21
1.2193828e-17
2.2834227e-20
4.5247472e-18
-1.3186087e-20
1.350382e-19
0
6.2201535e-17
0
0
0
9.7639833e-20
8.9130212e-24
3.8504421e-24
5.1840851e-21
1.4260345e-24
6.0021153e-27
7.6122617e-23
1.8849496e-21
4.4704589e-23
1.2153589e-19
0
6.5860371e-35
5.4751869e-23
5.618993e-23
0
2.2691964e-20
9.5781043e-25
3.0578069e-20
-1.2176843e-23
4.7210771e-21
0
1.9496723e-19
0
1.3232373e-23
6.0013152e-23
1.6182089e-20
7.7936939e-28
1.6332996e-25
2.2230284e-23
1.3031567e-28
8.9194559e-30
9.5593826e-27
1.8525793e-25
8.1544709e-27
4.4531532e-23
1.2340749e-26
7.5560999e-27
1.4723197e-24
1.0728757e-26
0
1.7528095e-24
3.6414722e-34
1.5563718e-24
2.870539e-27
8.3113915e-24
1.1559955e-24
4.179909e-22
-4.7368499e-24
4.7923064e-24
2.6178259e-25
4.5689595e-22
1.17194e-27
1.7119326e-25
5.7173338e-24
5.7615509e-30
1.373371e-29
5.7204175e-28
4.4663253e-29
2.2949638e-30
8.1182975e-27
6.7008969e-29
5.204246e-31
1.1722592e-26
2.9278414e-30
2.3559161e-32
7.6125607e-28
9.2802671e-30
7.3884043e-28
1.3736237e-30
4.893161e-25
1.1025739e-25
2.688875e-23
-2.0928367e-26
3.0520403e-27
4.6389055e-28
2.2587583e-24
1.6965165e-28
9.7719404e-29
1.492855e-25
2.0482027e-32
2.0620425e-30
7.4314875e-29
6.7665282e-33
7.8037068e-34