/*--------------------------------*- C++ -*----------------------------------*\
  =========                 |
  \\      /  F ield         | OpenFOAM: The Open Source CFD Toolbox
   \\    /   O peration     | Website:  https://openfoam.org
    \\  /    A nd           | Version:  13
     \\/     M anipulation  |
\*---------------------------------------------------------------------------*/
FoamFile
{
    format      ascii;
    class       volScalarField;
    location    "0.12";
    object      p;
}
// * * * * * * * * * * * * * * * * * * * * * * * * * * * * * * * * * * * * * //

dimensions      [1 -1 -2 0 0 0 0];

internalField   nonuniform List<scalar> 
51200
(
254.61114
722.15845
840.59438
849.68368
849.21134
840.2313
723.43036
256.8982
-55.132325
529.424
757.57245
793.49636
793.01176
757.09316
529.80399
-57.198339
-284.32626
326.25746
650.38128
722.74524
722.25135
649.6358
325.42577
-288.57577
-432.11813
121.55064
518.27977
635.44352
634.94202
517.13528
119.4926
-436.5732
-503.3162
-61.310034
365.87813
525.84918
525.34186
364.32847
-64.128904
-506.59109
-526.37525
-208.77528
204.5501
395.78975
395.2805
202.72068
-211.68199
-528.00729
-514.56889
-308.33649
39.961848
235.71096
235.23072
38.124889
-310.62286
-514.80613
-501.66742
-394.08644
-135.78255
44.12861
43.701267
-137.37128
-395.38015
-501.19226
-79.820895
442.15659
588.45614
619.20604
618.71793
588.05502
443.42591
-77.197988
-365.88413
292.43754
555.42869
609.09647
608.60954
554.95753
292.79324
-367.91209
-563.84841
126.77375
491.79259
580.1676
579.68224
491.07032
125.86415
-568.2392
-680.71453
-51.094816
391.32236
524.90682
524.41986
390.18477
-53.302944
-685.35741
-720.30812
-211.38121
263.092
441.18306
440.69266
261.51106
-214.39368
-723.77646
-712.61183
-336.22306
122.7254
334.69133
334.20053
120.81749
-339.3591
-714.4047
-670.34241
-410.82423
-21.045343
196.70699
196.24066
-22.993539
-413.32591
-670.72463
-630.68455
-476.47298
-183.22415
18.234449
17.806563
-184.93172
-477.9284
-630.31598
-41.931881
536.56164
699.63253
736.61638
736.18403
699.50754
538.31811
-38.742278
-360.83072
369.3066
661.48668
723.03015
722.61347
661.31841
370.10039
-362.45898
-581.0257
184.52466
590.00018
689.46859
689.06222
589.58362
183.97592
-585.15962
-711.56543
-13.864152
477.9412
627.27742
626.87317
477.08205
-15.828802
-716.1003
-756.46262
-192.32604
334.69901
533.50597
533.09844
333.34956
-195.22303
-759.89056
-748.87844
-331.63604
178.05476
415.40925
414.99346
176.32403
-334.72887
-750.67027
-702.81846
-415.27808
17.411632
262.76008
262.35369
15.587589
-417.77423
-703.1839
-660.5186
-490.22875
-164.40021
62.311503
61.921779
-166.03413
-491.70234
-660.11357
-37.309999
606.50862
796.31306
840.23798
839.92609
796.68345
609.09616
-33.203234
-390.4228
420.79217
752.71007
823.48018
823.20298
753.08034
422.40473
-391.24041
-634.90761
215.26004
671.9694
784.68407
784.42957
672.10484
215.46407
-638.41033
-779.54899
-4.4067823
547.39137
715.45224
715.20501
547.06008
-5.751468
-783.68291
-829.15124
-200.92518
389.0986
612.56972
612.31559
388.22256
-203.37126
-832.3749
-819.8249
-353.65616
216.63978
483.07808
482.80524
215.30462
-356.45809
-821.54137
-767.07641
-444.39587
40.052299
315.29267
315.00717
38.524796
-446.73485
-767.43649
-716.93131
-524.61434
-159.33995
96.425237
96.126794
-160.78781
-526.05063
-716.53661
-0.69611027
706.80043
920.4627
970.41063
970.24124
921.44924
710.42087
4.5462491
-388.24878
502.39189
871.83237
951.21762
951.10529
872.88778
505.09395
-387.92972
-656.84664
276.21631
782.38145
907.98207
907.90969
783.23409
277.46387
-659.37714
-816.06876
34.576939
644.9109
831.55058
831.49753
645.28791
34.14217
-819.52761
-871.22984
-181.45663
470.50149
718.38265
718.32858
470.28733
-183.18616
-874.07609
-861.64049
-349.43349
280.6588
576.05973
575.98067
279.90598
-351.73077
-863.20409
-803.56243
-449.45152
86.321547
391.52197
391.40801
85.267257
-451.48578
-803.88313
-748.99352
-538.38056
-135.59199
149.88464
149.71798
-136.7265
-539.7012
-748.62274
32.199264
802.29578
1039.6135
1095.6534
1095.6697
1041.3434
807.17239
38.794483
-389.19747
579.64381
986.3938
1074.3964
1074.4991
988.28061
583.68425
-387.43456
-681.64832
333.29088
888.64374
1026.9859
1027.1534
890.38009
335.87189
-682.8905
-855.3348
70.188254
738.77211
943.65593
943.85975
740.03723
70.96908
-857.8642
-915.89791
-164.84517
548.74607
820.58413
820.79268
549.37654
-165.56988
-918.20499
-905.73595
-347.57073
341.97086
665.96154
666.13801
341.97317
-349.11924
-907.06796
-842.44455
-456.28588
130.6096
465.46112
465.57676
130.17065
-457.83394
-842.71008
-782.41796
-552.80364
-111.37671
201.94223
201.95683
-112.06206
-553.89324
-782.07513
67.865215
896.5162
1155.5739
1217.281
1217.4655
1158.0135
902.61933
75.71995
-385.56485
656.64231
1098.1377
1194.2443
1194.5492
1100.8353
662.01564
-382.39279
-700.58066
391.25161
992.70564
1143.0706
1143.4704
995.3231
395.19145
-700.54997
-888.037
107.83005
831.16196
1053.2977
1053.7569
833.33776
109.86945
-889.6648
-953.83777
-145.28307
626.29043
920.82076
921.2989
627.80792
-144.95038
-955.65208
-943.26328
-342.11115
403.21629
754.44627
754.89293
404.03222
-342.86087
-944.41288
-875.29827
-459.24277
175.34035
538.63412
538.99911
175.59711
-460.26434
-875.61031
-810.49638
-563.29587
-85.378562
254.00029
254.21662
-85.576031
-564.12605
-810.24713
99.578884
981.56017
1260.8224
1327.9662
1328.3367
1263.9543
988.77312
108.58342
-382.58036
725.76382
1199.4993
1303.3469
1303.8719
1202.9948
732.45345
-378.41513
-718.42137
442.95816
1087.0727
1248.7694
1249.4183
1090.5949
448.23921
-717.18209
-918.40444
141.04088
914.8582
1153.1423
1153.8752
917.93638
144.33399
-919.22019
-988.99508
-128.48629
696.40826
1012.1131
1012.8804
698.83273
-127.09604
-990.39922
-978.06823
-338.07161
458.51708
835.06857
835.80446
460.17231
-338.01864
-979.13746
-905.84482
-462.6961
215.93578
605.37255
606.00412
216.89253
-463.19765
-906.25498
-836.60273
-573.39896
-62.107302
301.53601
301.96853
-61.802114
-573.98346
-836.47122
125.54346
1054.4911
1352.8198
1425.1709
1425.6705
1356.4961
1062.8757
135.88313
-381.45595
784.57105
1287.959
1399.1677
1399.8458
1292.0906
792.49528
-375.80731
-734.02399
486.5122
1169.2795
1341.6072
1342.4329
1173.472
493.01902
-732.08397
-944.35838
168.65955
987.59924
1240.8343
1241.7661
991.42136
173.01214
-944.88828
-1019.0791
-114.88844
757.30893
1092.2854
1093.2691
760.44445
-112.69896
-1020.6305
-1008.0062
-335.39906
506.54263
905.86922
906.82868
508.85976
-334.72938
-1009.3677
-932.08504
-466.34696
250.88086
663.99333
664.83737
252.39588
-466.47538
-932.8878
-859.26676
-582.76133
-42.286342
343.24601
343.85449
-41.580734
-583.18467
-859.41622
146.26112
1113.8223
1428.7425
1506.2924
1506.9165
1432.8991
1122.8711
156.37106
-380.95573
831.66754
1360.5841
1478.7922
1479.6
1365.1891
840.26973
-374.931
-747.42724
520.80203
1236.6209
1418.7098
1419.6698
1241.2648
527.99381
-744.92469
-966.47533
189.88857
1047.0584
1313.6094
1314.6772
1051.3219
194.74699
-966.5134
-1044.6111
-105.23558
806.88171
1158.7526
1159.872
810.43731
-102.58596
-1045.8945
-1033.5598
-334.49785
545.42188
964.49512
965.58581
548.1153
-333.58663
-1034.836
-954.7203
-470.57654
278.9113
712.45194
713.41827
280.75357
-470.59899
-955.48247
-879.08119
-591.7058
-26.854523
377.51085
378.22185
-25.901147
-592.10087
-879.1962
166.23918
1159.6403
1492.1623
1569.2179
1569.921
1496.6055
1168.9197
176.78706
-376.65945
868.232
1414.6107
1539.8141
1540.696
1419.4656
876.81239
-369.83824
-759.8861
547.40861
1286.9894
1477.7741
1478.7944
1291.8382
554.77911
-756.97474
-986.32288
205.66153
1091.7618
1369.3609
1370.4718
1096.1723
210.55674
-986.10507
-1067.3087
-98.406419
844.18086
1209.6308
1210.7792
847.85962
-95.909168
-1068.0955
-1056.0897
-334.75104
574.44184
1009.3014
1010.4121
577.24903
-333.98786
-1056.9745
-974.78566
-474.934
299.46822
749.3832
750.36965
301.42611
-475.10547
-975.25541
-896.68531
-599.88824
-16.196396
403.29121
404.02495
-15.133338
-600.42327
-896.53105
175.15005
1188.2578
1543.9034
1609.4651
1610.2251
1548.6801
1198.7007
188.08621
-380.2487
892.05249
1448.3963
1579.9375
1580.868
1453.2357
902.48349
-367.8921
-769.25359
563.9542
1318.8091
1516.5353
1517.5735
1323.9367
572.47055
-765.78558
-1000.8575
214.94698
1120.6166
1405.9475
1407.0818
1125.2579
220.60116
-1000.4206
-1084.4537
-95.697841
868.51975
1242.9548
1244.1201
872.3703
-92.365793
-1084.8414
-1073.7211
-337.14872
593.11651
1038.5152
1039.6359
596.0521
-335.58538
-1074.1032
-990.89599
-479.45559
312.09762
773.2465
774.24702
314.17727
-479.782
-990.83039
-911.06853
-608.0574
-10.601369
419.39588
420.15274
-9.4275113
-607.97923
-910.5229
174.71119
1198.3222
1564.2076
1628.073
1629.1707
1568.8913
1208.6025
189.68248
-387.22088
899.65613
1463.6758
1598.209
1599.4838
1469.1507
909.36819
-375.62766
-778.31307
569.13171
1332.5589
1534.0929
1535.4754
1338.1833
576.62669
-772.70136
-1012.7828
216.45894
1133.1677
1422.4276
1423.8501
1138.1629
221.72236
-1009.9134
-1097.2316
-97.636788
879.24447
1257.8113
1259.2011
883.36477
-94.373834
-1096.7115
-1086.6806
-341.12347
601.04835
1051.2836
1052.5693
604.27093
-340.15525
-1086.3828
-1003.1002
-486.04009
316.61495
783.27036
784.3913
318.95695
-485.93839
-1002.135
-922.37395
-615.83206
-10.038078
425.32458
426.1761
-8.6593063
-615.50105
-921.44943
167.969
1190.63
1551.584
1623.0446
1623.7906
1556.111
1200.6511
181.74766
-393.80482
892.31718
1458.8381
1593.2109
1594.0971
1463.759
901.84271
-383.96841
-783.48218
561.87237
1327.0649
1529.0111
1530.0014
1331.8775
569.90739
-776.96425
-1019.0657
209.47324
1127.5897
1417.3844
1418.4204
1131.9499
215.04161
-1015.6385
-1104.8406
-104.24016
873.82267
1252.8308
1253.9046
877.43468
-100.8886
-1103.1822
-1094.26
-348.99322
595.9456
1046.3212
1047.3657
598.73932
-346.87638
-1093.4572
-1011.3576
-492.47797
311.35316
778.28286
779.23403
313.37776
-492.97404
-1009.7648
-930.6257
-623.67379
-15.731554
420.15331
420.88993
-14.543705
-622.60405
-929.26895
153.2735
1162.4319
1518.6219
1591.847
1592.3124
1523.136
1172.4843
164.22276
-401.75314
867.97408
1429.3146
1562.3817
1562.9103
1433.8828
877.45425
-393.65119
-785.44817
541.36999
1298.6232
1498.8794
1499.4654
1302.8043
550.20161
-781.18778
-1020.4128
192.61399
1101.4139
1388.5475
1389.201
1104.921
201.17697
-1016.9019
-1105.9273
-117.08101
850.63058
1225.9918
1226.6491
853.55228
-111.72765
-1103.78
-1095.6948
-358.95729
576.38119
1021.9144
1022.561
578.45163
-355.18354
-1093.804
-1014.3579
-498.39034
295.14994
756.9429
757.54309
296.53981
-499.82685
-1012.8424
-934.61859
-630.25133
-28.46308
402.88208
403.32673
-27.695231
-630.81189
-933.10564
128.28242
1113.3567
1464.1129
1534.4769
1534.0964
1467.658
1122.8821
138.25644
-413.25541
826.13426
1375.0311
1505.9847
1505.5136
1378.254
835.46927
-405.93914
-788.47605
507.25339
1247.1567
1443.8564
1443.4298
1249.3644
518.25592
-783.31222
-1017.0572
166.55135
1054.6865
1336.1271
1335.6973
1056.8761
175.26602
-1015.2956
-1100.8606
-135.64527
809.97922
1177.3612
1177.0629
811.6015
-126.59715
-1099.5625
-1091.4388
-371.92893
542.48787
977.98057
977.80966
543.17449
-369.13841
-1090.4803
-1012.4131
-507.42799
267.83974
719.09587
719.03124
268.29156
-511.71991
-1010.4625
-934.87956
-636.86551
-48.371271
373.31104
373.2487
-48.199186
-637.61891
-932.82469
95.09763
1044.8052
1391.2947
1453.275
1452.6408
1394.6558
1062.4602
103.49437
-427.51536
768.13458
1297.8693
1425.4213
1424.6955
1300.8491
786.68838
-421.25361
-788.99455
460.58191
1174.1689
1365.3516
1364.5673
1175.7985
480.83651
-782.07299
-1009.5191
131.90371
988.88008
1261.3715
1260.5121
990.19569
143.65999
-1007.0796
-1090.4506
-159.23226
753.12241
1108.1117
1107.3342
753.56552
-150.40686
-1088.7357
-1080.5851
-387.5207
495.31504
915.58666
914.92435
494.95639
-389.37914
-1080.1606
-1006.0862
-515.88299
230.37111
665.63995
665.12509
230.07064
-525.45032
-1003.4129
-931.55913
-643.07633
-74.835378
332.11457
331.69575
-75.117412
-646.08079
-929.05728
52.749879
957.64064
1294.3455
1350.9518
1350.095
1296.8351
978.38447
59.147098
-445.29792
694.21253
1201.9512
1324.1429
1323.2096
1204.0052
716.20519
-439.84859
-787.91875
401.27461
1083.1671
1266.6533
1265.6127
1083.9116
421.83446
-783.17559
-998.29951
88.301909
906.57328
1167.3214
1166.2263
906.75911
100.27546
-996.00367
-1075.6335
-188.61593
682.08171
1021.0614
1019.9744
681.68379
-182.41453
-1072.9861
-1066.5366
-406.46196
436.80094
837.24804
836.25748
435.65046
-408.92295
-1065.1465
-995.32803
-520.95868
183.94392
598.65807
597.84884
183.46283
-538.69286
-992.76774
-924.87666
-648.3639
-107.1015
280.81429
280.18668
-107.32743
-653.3397
-922.26436
11.010585
859.4125
1177.5772
1232.9639
1232.136
1179.4779
872.5135
12.416501
-459.08273
610.71265
1091.1597
1206.2476
1205.2076
1091.3943
625.47363
-456.56108
-784.80361
334.74355
978.24064
1151.8184
1150.7945
977.79501
344.13236
-783.3663
-980.41068
41.325956
810.97564
1058.0063
1056.995
811.02536
46.554783
-979.86045
-1055.4755
-219.60978
599.75419
919.92603
918.99347
599.87279
-219.85522
-1051.9382
-1048.3603
-427.99513
369.04311
746.32342
745.50702
368.31975
-427.57737
-1046.4864
-982.95336
-531.11637
130.39892
521.08959
520.44192
130.39272
-550.06418
-979.41703
-916.17248
-655.43712
-143.80118
221.6955
221.2498
-143.55494
-658.14966
-913.00677
-37.015509
754.78592
1050.7548
1104.5004
1103.5993
1049.8403
761.66033
-23.689405
-474.32437
523.61007
966.78762
1073.3857
1073.6816
967.80737
530.3598
-434.98772
-781.58193
267.62941
860.10396
1022.5441
1022.8444
861.05594
267.04875
-774.98823
-964.46773
-2.0689648
703.72264
935.05757
935.37177
704.92151
-11.214538
-959.43087
-1026.9624
-252.32635
508.74997
806.3173
806.65212
507.82597
-258.6971
-1031.2548
-1026.9229
-436.45568
293.36156
644.37792
644.69518
292.74395
-450.21468
-1024.7124
-965.38407
-552.77031
71.238682
434.28556
434.631
71.29052
-563.01222
-963.91909
-904.56429
-664.09377
-183.91886
155.67196
156.06639
-183.87738
-663.49946
-902.02429
-94.282568
645.25868
917.46241
969.74177
969.59417
906.03986
637.53722
-82.867597
-499.45158
434.49004
833.86319
930.68262
933.96487
841.16304
426.04982
-489.57741
-775.85458
199.44206
733.99492
883.94052
887.06243
740.52154
187.87933
-764.83309
-943.0991
-56.287714
590.45176
803.29544
806.29384
594.61367
-67.292464
-938.32327
-1001.9358
-286.19856
412.03484
684.74217
687.5094
412.2482
-295.69102
-992.03974
-1001.1157
-463.04647
213.35302
535.44646
537.93709
214.34178
-471.62253
-1000.5948
-946.14726
-573.04915
9.3340421
341.79087
343.9327
10.276393
-575.20911
-943.67754
-891.07454
-669.15371
-225.47405
85.593308
87.361033
-225.34539
-668.28247
-888.2845
-149.42436
524.39598
775.06349
831.57686
837.1423
763.25856
514.89726
-130.70717
-518.4687
334.5473
696.04531
782.88311
787.44516
705.84938
321.57119
-499.30507
-769.30253
122.31529
603.74602
740.35032
745.11236
612.82566
105.90117
-760.10496
-920.43098
-119.14872
472.64509
666.88012
671.57671
478.49805
-124.67951
-919.20284
-978.05556
-324.45208
309.48958
558.93327
563.44886
312.03219
-325.57935
-969.38538
-972.90977
-488.83585
129.54026
422.86337
427.04931
131.90518
-490.2802
-975.37689
-924.47057
-587.51513
-55.789145
246.42928
250.04688
-53.604013
-585.69624
-923.16981
-875.27991
-673.4467
-269.48814
13.494956
16.426003
-268.10692
-668.3864
-871.52433
-183.68706
398.39231
627.77343
695.16174
711.40513
624.19627
400.74204
-175.48354
-500.70938
226.95697
558.04942
633.95015
635.67208
591.76797
221.44402
-466.29339
-751.16166
29.964278
474.00045
595.79403
598.24593
478.6618
28.964336
-751.8429
-888.32144
-175.09407
355.13948
529.64934
532.5773
355.89074
-172.59796
-894.56932
-937.22328
-364.01437
206.43209
432.44044
435.41157
207.43999
-365.51952
-945.61982
-949.98997
-516.58462
44.312296
309.70542
312.77145
45.785489
-510.06754
-950.51099
-904.38937
-601.60453
-121.77516
150.62745
153.51278
-120.26311
-597.35196
-904.06405
-859.50616
-677.26491
-314.09296
-58.800034
-56.377628
-312.36583
-677.60303
-859.35454
-219.26554
272.95279
482.30681
569.03323
586.26505
490.61272
278.71276
-261.13777
-457.95951
109.84534
424.88823
492.00628
497.39476
441.41267
128.73863
-558.20258
-735.71303
-64.466083
348.68418
458.08614
463.92345
360.30598
-45.876348
-759.79479
-865.80362
-238.3535
238.79223
398.8753
404.48956
251.32548
-231.59574
-872.77241
-905.95786
-402.52786
108.74707
311.65132
317.34306
116.95872
-408.20831
-923.10363
-926.22891
-510.35544
-35.401556
201.77607
207.13429
-27.784932
-539.30874
-921.04307
-884.18658
-608.46045
-184.27218
59.521688
64.191035
-176.09624
-615.27161
-880.75897
-842.69344
-677.70083
-355.55126
-127.21069
-123.41192
-348.74583
-682.33976
-840.93299
-268.72507
179.23599
354.71382
444.3975
441.04553
360.80497
135.07033
-268.17002
-467.38658
34.447015
295.50716
353.47532
358.07831
313.16565
15.220494
-555.70207
-723.53644
-118.39079
226.38882
323.88151
329.16586
243.58013
-129.82292
-713.42157
-841.49135
-274.01104
128.37733
271.12938
276.25736
145.0703
-234.07553
-868.42049
-877.3937
-431.81084
12.813183
193.80239
199.49023
22.907252
-435.26182
-903.37304
-897.46062
-542.97416
-114.76759
96.593341
102.13033
-105.48409
-555.36045
-896.11754
-861.51448
-624.50009
-245.01853
-29.163739
-24.240709
-235.5583
-622.31514
-860.94512
-826.23964
-685.04649
-395.37105
-193.83533
-189.78938
-388.00523
-681.95319
-824.8847
-325.85941
76.954115
243.73981
328.45284
317.91536
237.72248
62.125761
-334.93828
-512.94262
-43.023305
171.56761
223.69146
226.08782
195.29126
-47.213645
-578.63837
-728.25589
-177.27316
112.40268
198.22986
202.25495
134.31044
-172.00884
-697.71257
-816.01695
-322.09641
27.698574
152.09815
156.26433
44.04209
-319.43438
-836.79481
-852.40123
-453.99508
-75.663008
84.30585
89.364368
-62.633634
-453.57742
-871.95454
-871.35575
-577.69614
-187.3751
-0.97041053
4.4493287
-174.82147
-578.62857
-868.22164
-841.46365
-636.1272
-300.41976
-111.21328
-106.22816
-288.92945
-638.8284
-837.3305
-810.22306
-687.1778
-431.75336
-255.27635
-251.21187
-422.58629
-689.6544
-807.07488
-342.51102
-42.878877
142.87092
216.38661
245.30912
122.31001
-49.903276
-393.77182
-570.57631
-137.21511
54.54056
100.43293
100.83329
86.417964
-146.82991
-599.90628
-687.95608
-262.41216
4.4401019
78.875707
81.446734
31.752322
-249.74408
-721.79808
-810.8167
-357.39142
-65.304996
39.627872
44.175155
-46.284011
-384.55278
-817.99903
-842.01449
-503.86528
-156.17518
-18.480233
-12.975697
-139.96942
-485.2786
-848.29857
-842.55986
-584.96344
-252.7725
-92.220381
-85.983395
-237.82201
-583.93023
-845.27535
-822.12106
-638.15095
-350.99764
-187.62087
-181.73225
-337.90522
-639.778
-819.48256
-795.2459
-684.10733
-465.24667
-312.27703
-307.44874
-454.30326
-685.69281
-792.27957
-370.99308
-129.38394
28.136409
116.59706
180.45991
19.487327
-146.81303
-427.01473
-573.87955
-212.58741
-40.996785
-10.81747
-9.3424478
-9.5745205
-231.39108
-607.76243
-674.76233
-317.9752
-86.915745
-28.985209
-24.955679
-54.969677
-319.77872
-725.34728
-779.53194
-422.78775
-149.23789
-62.060897
-49.833273
-118.419
-425.10184
-797.58971
-813.56787
-518.43799
-223.35434
-111.80321
-99.583707
-204.73325
-503.80363
-823.40142
-802.72578
-570.85042
-306.11486
-174.94326
-162.75448
-292.90593
-592.59187
-822.32267
-806.50524
-639.00588
-393.02621
-256.75667
-245.78941
-380.67585
-641.34063
-801.28725
-781.42375
-681.86369
-491.90484
-363.57668
-354.79035
-481.15969
-681.57808
-777.19005
-397.54583
-190.69275
-88.721019
38.591646
67.904682
-119.07734
-218.51228
-454.27125
-582.96903
-262.15217
-118.22934
-108.82512
-111.1562
-80.934838
-286.06362
-608.00874
-669.39878
-350.65494
-165.73626
-123.57785
-117.96789
-113.86283
-370.89666
-714.3408
-777.11251
-446.33724
-220.20792
-151.56949
-132.78416
-169.335
-462.50904
-769.49091
-803.21558
-515.6815
-281.07494
-193.04745
-175.48571
-257.00445
-536.12979
-799.11104
-799.26548
-579.06117
-353.2924
-246.43186
-230.27519
-336.70062
-609.62571
-793.06292
-783.63094
-648.61143
-428.10719
-316.15878
-301.94227
-413.74753
-648.13074
-785.46028
-763.96278
-683.08428
-512.85912
-407.20467
-395.77014
-500.85995
-680.73571
-765.75756
-431.89466
-268.44854
-161.54691
-8.2729758
-62.266175
-103.86019
-288.17904
-451.014
-601.09267
-324.82139
-186.39254
-191.64449
-202.61938
-41.744402
-325.09375
-599.63458
-642.30575
-394.74478
-222.10758
-205.01973
-196.94787
-155.74038
-408.2975
-641.3167
-765.47643
-476.68841
-276.32066
-225.27108
-211.78936
-190.05288
-451.72143
-746.19771
-784.09929
-547.51823
-333.37651
-260.99329
-248.74248
-350.27187
-554.01424
-749.83409
-779.95579
-617.30266
-393.72019
-306.36468
-294.5032
-410.69716
-612.59548
-752.83722
-762.64656
-652.24816
-456.64613
-365.78448
-354.96765
-470.26063
-646.77665
-765.04726
-746.48999
-680.00548
-529.57
-443.40295
-434.48789
-539.58042
-677.06535
-749.05752
-527.89829
-320.50391
-221.52021
-118.43606
-218.6605
-258.89848
-343.15039
-458.18491
-648.40867
-385.64011
-244.9284
-275.71883
-261.77076
-210.13916
-377.46003
-574.23042
-672.83407
-434.73468
-250.15536
-272.73879
-267.43435
-230.8271
-443.39085
-649.45495
-735.07813
-502.2397
-319.69979
-284.78047
-270.95539
-293.13876
-496.88715
-662.26663
-749.14134
-581.74401
-376.43096
-314.40818
-301.91425
-358.70688
-572.91116
-761.38619
-750.7987
-628.86615
-430.4051
-352.4327
-341.55447
-417.15053
-619.38351
-764.80839
-734.78886
-654.44953
-483.33256
-403.21774
-393.63816
-473.18383
-644.24522
-749.53682
-725.04717
-676.59271
-544.84121
-469.74521
-462.20472
-537.14061
-669.33685
-733.92711
-549.4276
-321.91604
-397.23148
-286.8177
-310.16804
-303.75063
-334.82449
-534.83492
-625.45001
-472.97871
-375.85772
-317.33886
-307.44173
-310.51711
-399.83491
-624.45966
-700.6664
-480.64742
-272.76865
-330.71467
-321.98096
-315.46537
-464.80495
-694.23513
-661.25303
-518.09076
-315.38526
-330.39216
-324.95901
-365.83551
-517.64787
-647.84369
-726.53597
-512.04004
-398.576
-356.66369
-351.3118
-410.28432
-551.66926
-727.7792
-727.99123
-628.49962
-451.84371
-388.92246
-384.522
-457.08435
-598.90199
-730.18849
-720.77599
-650.67417
-499.76836
-432.7336
-428.66636
-504.17072
-642.80245
-720.52919
-710.01656
-669.61107
-553.28029
-490.38392
-487.03356
-556.90441
-666.48753
-712.67821
-550.32736
-342.39529
-371.5697
-340.69796
-341.50776
-384.58484
-306.31148
-550.35672
-565.76941
-482.52069
-382.19121
-343.74801
-303.03118
-351.41394
-392.09394
-614.02006
-658.04474
-479.54674
-329.13559
-371.20055
-368.6208
-340.82929
-461.08159
-676.12684
-658.56051
-512.87333
-316.6151
-384.29567
-381.23285
-406.9614
-516.42216
-660.51595
-673.01835
-536.92107
-469.01202
-405.47749
-400.54679
-450.95865
-562.74009
-687.96267
-714.16383
-614.98463
-505.24805
-432.32037
-428.57836
-484.94967
-597.40772
-718.26071
-708.44735
-641.45632
-541.86466
-467.75466
-464.87401
-524.02527
-635.8073
-709.50458
-699.70405
-660.78164
-582.35265
-515.47415
-513.23089
-569.40748
-661.37119
-701.6503
-414.55718
-343.69117
-437.5514
-375.845
-434.45732
-409.50613
-292.41125
-593.02534
-528.73591
-466.02109
-425.55042
-385.8571
-422.64102
-375.38805
-391.66347
-603.82243
-566.05538
-463.56716
-435.16209
-392.96641
-361.97075
-377.61078
-461.02949
-672.42272
-669.78735
-535.60562
-368.6005
-417.69586
-403.88846
-445.37552
-543.64558
-644.73791
-650.30737
-569.01537
-500.03838
-438.24329
-425.01301
-490.52494
-597.11555
-670.46157
-723.00998
-605.24958
-524.1297
-461.32448
-450.33371
-514.9392
-621.70619
-697.04597
-711.59203
-638.05087
-555.2473
-491.03712
-482.42741
-546.76425
-644.13763
-692.89397
-700.71387
-653.84505
-589.05943
-531.1959
-524.57614
-582.55992
-662.34213
-687.68959
-514.51195
-368.70034
-391.52011
-434.62171
-543.72884
-440.38777
-380.55704
-594.76988
-609.29437
-468.48403
-463.48085
-439.31186
-485.47523
-398.52143
-488.86131
-575.66617
-627.67159
-469.91702
-475.65804
-441.3978
-348.40121
-350.47547
-501.31598
-663.69962
-659.52725
-538.13215
-493.94447
-452.25013
-432.50371
-464.61852
-528.63058
-645.29281
-671.33176
-575.1083
-517.11632
-469.26147
-459.60177
-508.81143
-605.51477
-663.03338
-637.30176
-598.22944
-540.86771
-488.16831
-481.5955
-532.73202
-626.43155
-678.28732
-671.93664
-634.04429
-565.77535
-512.62928
-507.86076
-558.3759
-639.17531
-676.56763
-669.69805
-647.98501
-593.41252
-545.68172
-542.0444
-588.12331
-655.12322
-673.07857
-582.49348
-410.87029
-368.44088
-456.03247
-543.4629
-454.90786
-480.48587
-552.14784
-633.39157
-475.73216
-485.88099
-457.8957
-496.90063
-401.16198
-541.52892
-517.61215
-637.84584
-494.65282
-493.21752
-460.73361
-396.68752
-381.735
-557.83869
-631.02461
-652.50211
-501.8114
-509.78124
-472.47189
-396.92887
-506.89501
-576.20655
-632.0102
-663.21816
-564.8223
-532.77454
-492.85214
-495.93975
-535.36909
-603.43352
-671.43162
-624.54731
-577.88603
-552.98615
-508.26636
-512.69636
-554.95906
-617.45315
-674.36007
-634.86691
-632.12694
-574.23792
-528.63745
-532.68819
-574.10496
-630.93026
-669.56651
-647.92443
-643.00467
-596.35933
-555.93864
-559.04827
-596.93735
-641.30645
-665.12263
-540.76689
-493.97089
-406.55389
-481.1223
-549.00524
-446.31867
-480.02312
-437.94641
-619.37369
-524.82109
-496.94101
-481.85877
-542.69347
-518.10792
-540.00144
-516.46868
-632.73072
-549.69497
-508.24259
-483.67034
-422.57996
-522.82079
-565.48837
-570.64682
-633.20621
-540.98242
-520.90188
-488.07209
-402.36425
-530.78726
-588.38026
-585.82493
-653.75947
-569.05356
-540.79253
-505.71742
-516.67872
-548.15842
-607.12119
-671.87282
-654.94154
-583.14989
-552.04961
-519.2638
-530.00311
-562.60135
-617.15617
-670.1372
-647.88739
-611.17732
-570.60233
-536.41004
-545.67508
-577.70179
-625.72209
-664.2294
-645.33363
-622.71719
-589.97239
-558.95365
-566.40741
-595.86087
-633.53429
-658.35796
-561.03775
-526.54569
-483.13243
-503.03294
-521.60724
-497.3251
-486.72388
-560.02577
-606.57264
-543.60096
-497.26406
-503.20083
-533.316
-519.23268
-563.98659
-601.56549
-625.4584
-558.37511
-489.55572
-498.86235
-421.09634
-529.114
-575.37747
-613.04835
-633.51666
-578.07556
-525.04991
-502.17239
-397.24708
-536.21129
-586.74045
-631.29027
-639.39567
-587.88172
-544.23099
-515.35704
-536.22058
-548.60451
-599.2321
-638.85111
-634.89254
-599.03928
-556.03169
-530.57901
-545.8279
-561.32956
-609.75295
-638.82751
-632.09393
-613.26155
-570.41812
-544.19299
-557.27572
-574.23967
-616.30868
-633.20327
-634.19855
-620.73279
-586.64271
-562.57766
-572.86238
-589.58727
-623.16854
-636.02553
-571.43588
-540.64449
-510.11025
-505.71058
-470.86281
-556.8881
-476.12034
-572.15209
-602.2765
-558.93736
-508.0225
-456.35494
-482.49621
-526.04753
-587.59928
-611.19895
-617.3496
-564.57029
-509.50073
-486.04437
-390.07254
-447.85256
-590.60274
-621.96677
-623.89879
-587.52768
-520.3308
-487.15661
-377.24155
-490.77815
-581.8442
-627.26427
-625.89441
-598.47727
-540.34765
-533.35818
-559.37265
-525.48683
-588.60092
-627.88732
-624.34659
-603.75703
-554.7181
-544.31871
-563.63251
-542.5401
-601.34192
-628.04754
-624.37139
-606.87578
-564.71277
-553.88542
-570.80383
-558.10723
-605.94882
-625.63917
-623.44976
-613.18996
-578.84185
-567.48226
-581.1928
-574.29173
-610.05696
-620.62216
-571.31111
-524.33973
-506.48812
-500.6597
-483.00283
-553.01768
-504.83821
-580.05709
-583.32414
-557.41073
-511.47368
-460.15987
-485.77906
-548.1378
-593.88993
-610.07826
-595.78949
-565.18941
-505.72504
-494.89755
-386.03498
-509.8631
-600.93138
-623.21079
-605.45647
-572.94934
-515.13385
-493.51908
-372.29218
-443.31899
-591.35088
-627.68194
-607.38572
-587.84982
-540.31116
-545.57668
-557.38696
-508.37833
-585.75789
-628.01139
-608.76575
-594.11633
-555.772
-550.42311
-558.89408
-532.01876
-591.31473
-625.8395
-608.57199
-597.3003
-564.689
-556.88738
-564.40165
-546.6725
-593.70814
-621.14964
-608.87694
-600.38969
-574.98641
-566.5927
-572.83229
-561.39544
-596.75304
-618.00823
-588.53452
-512.58936
-500.07008
-531.48762
-528.23731
-531.58607
-545.45867
-565.81472
-563.43988
-550.64566
-511.36591
-532.51387
-508.29479
-541.30512
-568.3561
-602.59167
-572.53909
-539.57972
-518.3906
-522.70103
-407.70234
-527.91982
-587.23859
-608.58219
-529.71018
-546.95125
-522.95225
-522.84125
-389.85866
-454.46749
-589.61153
-615.08337
-557.12217
-580.34573
-534.89341
-531.51152
-566.52026
-465.43827
-584.27538
-613.69572
-586.04995
-585.68812
-551.77834
-538.74884
-559.48852
-521.59449
-575.46952
-612.04972
-588.33526
-587.24802
-558.56422
-544.81251
-562.5435
-539.38524
-577.40627
-607.75429
-589.94985
-589.57347
-566.25279
-554.23796
-568.65099
-551.88327
-581.10709
-604.17914
-546.55603
-483.23216
-506.84326
-526.7109
-547.56846
-548.86792
-548.59018
-534.48027
-541.09323
-533.48748
-513.00482
-527.14948
-521.8176
-547.77784
-550.35187
-598.71982
-533.75823
-498.52779
-517.23379
-525.34548
-471.46841
-561.36911
-559.80891
-599.25256
-492.56334
-509.4455
-521.88234
-524.87081
-441.22791
-539.93637
-579.54005
-601.47071
-499.59432
-578.06796
-529.31899
-528.25077
-561.49564
-464.72673
-587.49613
-605.85145
-578.52856
-582.97205
-544.67715
-540.78768
-553.76852
-484.36469
-568.90102
-602.94424
-580.20986
-582.91799
-551.33799
-541.49984
-554.68734
-504.59272
-559.18146
-597.69498
-580.41187
-582.29528
-557.34711
-548.61752
-564.73875
-525.54926
-559.66484
-590.83953
-583.90574
-522.3358
-507.57382
-511.62235
-536.53322
-508.68005
-538.36571
-562.3192
-585.49817
-576.09409
-513.46472
-521.44958
-518.27114
-510.79301
-529.49856
-561.09477
-511.27498
-504.75385
-513.67866
-517.56308
-542.75352
-516.16187
-528.64781
-579.99517
-483.80748
-530.67678
-516.8993
-515.04263
-520.83145
-527.90015
-554.30177
-580.23888
-487.11701
-542.45814
-521.92983
-517.23612
-552.82475
-511.8555
-579.83549
-586.00208
-560.60751
-562.68004
-537.03731
-537.76177
-547.34148
-450.65816
-574.83415
-588.19475
-561.36656
-563.85914
-543.75967
-538.58384
-547.57488
-488.83369
-554.2415
-585.15211
-561.95059
-564.35645
-547.95274
-542.77282
-556.42725
-509.20068
-548.54371
-578.87647
-649.27294
-529.46946
-479.02214
-501.54376
-539.62954
-482.13924
-522.03588
-532.09515
-654.59718
-535.99921
-446.33278
-490.69337
-547.44025
-486.8858
-518.29545
-507.47293
-513.19918
-501.56517
-506.7122
-514.37977
-540.78165
-480.77381
-535.91389
-553.63526
-547.30873
-514.55158
-503.71379
-500.50122
-524.06207