/*--------------------------------*- C++ -*----------------------------------*\
  =========                 |
  \\      /  F ield         | OpenFOAM: The Open Source CFD Toolbox
   \\    /   O peration     | Website:  https://openfoam.org
    \\  /    A nd           | Version:  13
     \\/     M anipulation  |
\*---------------------------------------------------------------------------*/
FoamFile
{
    format      ascii;
    class       volScalarField;
    location    "0.12";
    object      p;
}
// * * * * * * * * * * * * * * * * * * * * * * * * * * * * * * * * * * * * * //

dimensions      [1 -1 -2 0 0 0 0];

internalField   nonuniform List<scalar> 
51200
(
0.90445444
0.89067469
0.8826573
0.87953866
0.87953779
0.88265476
0.8906708
0.90444969
0.89435844
0.88117568
0.87385289
0.87107403
0.87107319
0.87385042
0.88117187
0.89435371
0.88501315
0.87266709
0.86599597
0.86350376
0.86350295
0.86599359
0.87266339
0.88500846
0.87740445
0.86595324
0.85991595
0.85766887
0.8576681
0.85991366
0.86594966
0.87739983
0.87098429
0.86041072
0.85499471
0.8529643
0.85296356
0.85499252
0.86040728
0.87097976
0.86538664
0.85565788
0.8508405
0.84900463
0.84900393
0.8508384
0.85565459
0.86538222
0.86048967
0.85153728
0.84729164
0.84563465
0.84563398
0.84728964
0.85153414
0.86048538
0.8562591
0.84787023
0.84420197
0.84271577
0.84271514
0.84420008
0.84786726
0.85625497
0.81717978
0.81644058
0.81596075
0.81545158
0.81545066
0.81595804
0.81643636
0.81717452
0.81818724
0.81756871
0.81707597
0.81656927
0.81656838
0.81707334
0.8175646
0.81818201
0.81931242
0.818871
0.81836984
0.81786133
0.81786048
0.81836729
0.81886702
0.81930723
0.8204603
0.82017248
0.81965944
0.81914933
0.81914852
0.819657
0.82016864
0.82045519
0.82162453
0.82142572
0.82089764
0.82039004
0.82038926
0.82089531
0.82142205
0.82161952
0.82275567
0.82257611
0.82203453
0.82153569
0.82153494
0.82203232
0.82257261
0.82275078
0.8238006
0.82358291
0.82303275
0.82254891
0.8225482
0.82303065
0.82357959
0.82379587
0.82465578
0.82438066
0.82382637
0.82335949
0.82335882
0.8238244
0.82437754
0.82465125
0.81891004
0.81764871
0.81689058
0.81652451
0.81652344
0.81688729
0.81764358
0.81890366
0.81921148
0.81796626
0.81726444
0.8169104
0.81690936
0.81726125
0.81796127
0.81920511
0.81951536
0.81829993
0.81765846
0.81731447
0.81731347
0.81765537
0.81829508
0.81950903
0.81965944
0.81848776
0.81791345
0.81758476
0.8175838
0.81791047
0.81848309
0.81965315
0.8196795
0.81857282
0.81806791
0.81775915
0.81775823
0.81806505
0.81856833
0.81967329
0.81963743
0.81860831
0.81817141
0.81788664
0.81788578
0.81816869
0.81860402
0.81963133
0.81953478
0.81859381
0.81822946
0.81797492
0.8179741
0.81822688
0.81858974
0.81952883
0.819214
0.81845465
0.81818613
0.81797245
0.81797168
0.81818371
0.81845081
0.81920829
0.80873706
0.8084989
0.80853034
0.80861966
0.80861832
0.80852616
0.80849245
0.80872917
0.80892833
0.80873984
0.80878045
0.8088497
0.80884841
0.8087764
0.80873357
0.80892045
0.80912692
0.80898393
0.80903834
0.80908995
0.80908871
0.80903441
0.80897785
0.80911905
0.80930793
0.80920184
0.80927358
0.80931314
0.80931195
0.80926979
0.80919597
0.8093001
0.80947701
0.80940545
0.80949685
0.80952881
0.80952766
0.80949321
0.80939979
0.80946924
0.80964624
0.8096064
0.80971782
0.80974558
0.80974449
0.80971435
0.80960098
0.80963857
0.80981293
0.80980993
0.80994138
0.809969
0.80996797
0.80993807
0.80980476
0.80980541
0.80991171
0.81002818
0.81017873
0.81021303
0.81021206
0.81017562
0.81002328
0.80990444
0.80315707
0.80298993
0.80310055
0.80329957
0.80329778
0.80309495
0.80298149
0.80314696
0.80325742
0.80312818
0.80324965
0.80342677
0.80342504
0.80324421
0.80311998
0.8032473
0.80336749
0.80327361
0.80340815
0.80356575
0.80356409
0.80340289
0.80326566
0.80335738
0.80346072
0.8033964
0.80354765
0.80369186
0.80369026
0.80354258
0.8033887
0.80345063
0.80353976
0.8035025
0.80367401
0.80380984
0.80380832
0.80366913
0.80349507
0.80352973
0.80361158
0.80359881
0.80379356
0.80392497
0.80392352
0.80378889
0.80359166
0.80360164
0.80367174
0.80369159
0.80391279
0.80404394
0.80404257
0.80390834
0.80368473
0.80366195
0.80368998
0.80381702
0.80406451
0.80420076
0.80419946
0.8040603
0.80381048
0.80368048
0.79788527
0.79781128
0.79798027
0.79821508
0.79821263
0.79797268
0.79780018
0.79787223
0.79794855
0.79790876
0.79808497
0.79829807
0.79829571
0.79807762
0.79789796
0.79793548
0.79801857
0.79801064
0.79819538
0.7983891
0.79838684
0.79818827
0.79800015
0.7980055
0.79808251
0.79810005
0.7982951
0.7984746
0.79847243
0.79828824
0.79808988
0.79806946
0.79814181
0.79818033
0.79838779
0.7985573
0.79855522
0.79838118
0.79817049
0.79812881
0.79819989
0.79825487
0.79847685
0.79863975
0.79863777
0.7984705
0.79824537
0.79818697
0.79825368
0.79832782
0.79856649
0.79872634
0.79872446
0.79856042
0.79831869
0.79824093
0.79828508
0.79842624
0.7986811
0.79884241
0.79884062
0.79867534
0.79841747
0.79827267
0.79320196
0.79314868
0.7932926
0.79349947
0.79349608
0.79328221
0.79313388
0.7931849
0.79324138
0.7932146
0.79336541
0.79355487
0.7935516
0.79335535
0.79320018
0.79322427
0.79328564
0.7932838
0.79344207
0.79361589
0.79361275
0.79343234
0.79326978
0.7932685
0.79332619
0.79334471
0.79351142
0.79367355
0.79367054
0.79350202
0.7933311
0.79330906
0.79336405
0.79339971
0.79357621
0.79372992
0.79372704
0.79356715
0.79338651
0.79334695
0.7934018
0.79345143
0.79363914
0.79378704
0.79378429
0.79363043
0.79343866
0.79338479
0.79343811
0.79350328
0.7937034
0.79384815
0.79384553
0.79369505
0.79349095
0.79342129
0.79346137
0.79357321
0.79378484
0.79392968
0.79392718
0.79377689
0.79356133
0.79344495
0.78881302
0.78877376
0.78888023
0.78904192
0.78903721
0.78886599
0.78875396
0.78879061
0.78883864
0.7888194
0.7889323
0.78908131
0.78907678
0.78891851
0.78880007
0.78881613
0.78886777
0.78886753
0.78898705
0.78912463
0.78912028
0.78897371
0.78884871
0.78884521
0.78889491
0.78891015
0.78903652
0.78916543
0.78916125
0.78902362
0.78889184
0.78887232
0.78892061
0.7889487
0.78908252
0.78920507
0.78920108
0.78907007
0.78893091
0.78889803
0.78894653
0.78898491
0.78912695
0.78924505
0.78924122
0.78911496
0.78896767
0.78892403
0.78897182
0.78902113
0.78917191
0.78928749
0.78928384
0.7891604
0.78900445
0.78894953
0.78898797
0.78906869
0.78922719
0.78934248
0.789339
0.78921619
0.78905256
0.78896617
0.78462281
0.78459024
0.78465722
0.7847717
0.78476514
0.78463767
0.78456362
0.78459326
0.78464001
0.78462215
0.78469523
0.78480135
0.78479504
0.78467628
0.78459612
0.78461028
0.78465976
0.78465596
0.78473513
0.78483373
0.78482766
0.78471678
0.78463055
0.7846299
0.78467827
0.78468588
0.78477096
0.78486383
0.78485801
0.7847532
0.78466112
0.78464834
0.78469587
0.78471279
0.78480393
0.78489263
0.78488705
0.78478678
0.78468869
0.78466591
0.78471368
0.78473785
0.78483538
0.78492123
0.7849159
0.78481884
0.78471444
0.78468378
0.78473116
0.78476271
0.78486673
0.78495108
0.78494599
0.78485084
0.78474001
0.78470149
0.78474209
0.78479484
0.78490425
0.78498856
0.78498368
0.78488904
0.78477285
0.78471302
0.7805706
0.78054293
0.78057731
0.78065083
0.78064166
0.78055039
0.78050701
0.7805316
0.78058271
0.78056576
0.78060576
0.78067434
0.78066552
0.78057963
0.78053052
0.78054339
0.78059669
0.78059004
0.78063559
0.78069976
0.78069129
0.78061025
0.78055555
0.78055713
0.78060981
0.7806114
0.78066209
0.78072298
0.78071484
0.78063755
0.78057769
0.78057006
0.78062224
0.78063035
0.78068612
0.7807447
0.78073689
0.78066238
0.78059748
0.78058239
0.78063477
0.78064767
0.78070861
0.78076576
0.78075828
0.78068571
0.78061568
0.78059492
0.78064702
0.78066458
0.78073059
0.78078719
0.78078005
0.78070857
0.78063354
0.7806074
0.78065445
0.78068641
0.78075641
0.78081334
0.78080651
0.78073532
0.78065632
0.78061559
0.77662397
0.77660082
0.77661077
0.77665123
0.77663831
0.77657321
0.77655172
0.77657199
0.77663304
0.77661771
0.77663259
0.7766706
0.77665815
0.77659605
0.77656931
0.77658047
0.77664351
0.7766357
0.77665546
0.77669136
0.77667938
0.77661995
0.77658814
0.77659045
0.77665327
0.77665133
0.77667553
0.77670998
0.77669847
0.77664108
0.77660472
0.77659981
0.77666242
0.7766649
0.77669339
0.77672699
0.77671595
0.77666004
0.77661936
0.7766087
0.77667151
0.77667694
0.77670973
0.77674305
0.77673249
0.77667755
0.77663258
0.77661769
0.77668026
0.77668839
0.77672536
0.77675895
0.77674886
0.77669443
0.77664536
0.77662669
0.77668531
0.77670336
0.77674357
0.77677789
0.77676826
0.77671399
0.7766617
0.77663276
0.77276342
0.77274564
0.77273828
0.77275248
0.77273402
0.77268533
0.77267781
0.77269322
0.77277095
0.77275885
0.77275547
0.77276888
0.77275105
0.77270372
0.77269145
0.77269963
0.77277958
0.77277287
0.77277348
0.77278635
0.77276916
0.77272302
0.7727064
0.77270719
0.77278747
0.77278479
0.77278906
0.77280178
0.77278523
0.77274
0.77271947
0.77271424
0.77279469
0.77279479
0.77280261
0.77281556
0.77279969
0.77275509
0.77273086
0.77272089
0.77280166
0.7728032
0.77281467
0.77282823
0.77281306
0.77276883
0.77274094
0.77272762
0.77280812
0.77281081
0.77282587
0.7728404
0.77282594
0.77278188
0.77275052
0.77273437
0.77281145
0.77282098
0.77283896
0.77285466
0.77284089
0.77279698
0.77276279
0.7727392
0.7689844
0.76896831
0.76894679
0.76893795
0.76891118
0.76886956
0.76898805
0.76887869
0.76899188
0.76897934
0.76896075
0.76895214
0.7689261
0.76888264
0.76888166
0.76889056
0.76899995
0.76899091
0.76897537
0.76896721
0.76894209
0.76889941
0.76889473
0.76889559
0.76900669
0.76900033
0.76898776
0.76898035
0.76895629
0.7689143
0.76890592
0.76890021
0.76901236
0.76900773
0.7689982
0.76899188
0.76896897
0.76892733
0.76891543
0.76890493
0.76901743
0.76901338
0.76900711
0.76900222
0.76898053
0.76893898
0.76892368
0.76890984
0.76902162
0.76901787
0.76901501
0.76901185
0.76899114
0.76895018
0.76893141
0.76891484
0.76902261
0.76902414
0.76902434
0.76902303
0.76900333
0.768963
0.76894128
0.76891871
0.76541964
0.7652692
0.7652286
0.76519587
0.76515518
0.76511315
0.76535166
0.765236
0.7653042
0.76527611
0.76524024
0.76520839
0.76516802
0.76512306
0.76513774
0.76513688
0.76531241
0.7652866
0.76525254
0.76522172
0.76518252
0.76513981
0.76514914
0.76513961
0.76531725
0.76529428
0.76526265
0.76523325
0.7651957
0.76515447
0.76515891
0.76514237
0.76532027
0.76529928
0.76527069
0.76524317
0.76520749
0.76516696
0.76516699
0.76514616
0.76532203
0.765302
0.76527695
0.7652518
0.76521809
0.76517795
0.76517374
0.76515038
0.76532222
0.76530291
0.76528191
0.76525956
0.76522789
0.76518806
0.76517986
0.76515472
0.76531866
0.76530474
0.76528783
0.7652685
0.76523888
0.76519953
0.76518766
0.76515856
0.76189769
0.76170358
0.76157595
0.7615098
0.76146507
0.76349335
0.76160258
0.76178312
0.76183449
0.76165209
0.76158499
0.76152052
0.76145894
0.76141805
0.76144527
0.76144314
0.76180012
0.76165543
0.76159555
0.76153241
0.7614726
0.76144222
0.76144909
0.76144339
0.7617773
0.76165905
0.76160366
0.76154322
0.76148681
0.7614579
0.76145573
0.76144268
0.7617592
0.76166087
0.76160938
0.76155255
0.76149948
0.76146931
0.76146421
0.76144375
0.7617423
0.76166042
0.76161301
0.76156049
0.76151079
0.76147891
0.76147178
0.76144589
0.76172697
0.76165782
0.76161497
0.76156741
0.76152122
0.76148777
0.76147831
0.76144858
0.76171326
0.76165539
0.76161763
0.76157545
0.76153276
0.76149808
0.76148606
0.76145158
0.75924357
0.75834872
0.75800934
0.75788915
0.75779395
0.76120533
0.75784555
0.75812722
0.75883846
0.75822555
0.75801131
0.75789093
0.75774841
0.75782454
0.75780259
0.75777612
0.75869251
0.75819903
0.75801723
0.75790149
0.75778885
0.75783406
0.75780558
0.75777919
0.75857858
0.75817841
0.75802058
0.75791216
0.75781199
0.75784241
0.75781213
0.75777878
0.75848101
0.75816009
0.75802123
0.75792131
0.75783115
0.7578475
0.75782154
0.75777977
0.75839644
0.75814211
0.75801952
0.75792868
0.75784848
0.75785103
0.75782961
0.75778192
0.75832506
0.75812316
0.75801565
0.75793458
0.75786386
0.75785448
0.7578359
0.75778474
0.75826954
0.75810243
0.75801166
0.75794109
0.75787877
0.75785991
0.75784284
0.75778835
0.76003647
0.75449922
0.75440637
0.754387
0.75524362
0.75746482
0.75410997
0.75424258
0.75515123
0.7545364
0.75442105
0.7542723
0.75407068
0.75419272
0.75419444
0.75413447
0.75490679
0.7544768
0.75442495
0.75428118
0.75413837
0.75420054
0.75419114
0.75414127
0.75480035
0.75446563
0.75442307
0.75429058
0.75417623
0.75420803
0.7541951
0.75414036
0.75471783
0.75446593
0.75441932
0.75430008
0.75420772
0.75421467
0.75420395
0.75414058
0.75464954
0.75446401
0.75441462
0.75430866
0.75423523
0.75422108
0.75421222
0.75414226
0.75459381
0.75445893
0.75440883
0.75431631
0.75425822
0.75422796
0.75421906
0.7541453
0.75456076
0.75445292
0.75440414
0.75432599
0.75427909
0.75423754
0.75422699
0.75415098
0.76158157
0.75073124
0.75075607
0.75097691
0.76803071
0.75212256
0.75050156
0.75059878
0.75160713
0.75084023
0.75078412
0.75067944
0.75096617
0.75057392
0.75059676
0.75058985
0.75147185
0.75077489
0.75079572
0.75069441
0.75097592
0.75055351
0.75060035
0.75058555
0.75134353
0.75075384
0.75080175
0.75071166
0.75098254
0.75057784
0.75061206
0.75058293
0.75122282
0.75074878
0.75080585
0.75072675
0.75097274
0.75060766
0.75062585
0.75057951
0.75111779
0.75074631
0.75080845
0.75073943
0.7509562
0.75063406
0.75063895
0.75057643
0.75102841
0.75074442
0.75080883
0.75075074
0.75093744
0.75065711
0.75065037
0.7505749
0.75096111
0.7507448
0.75080824
0.75076483
0.75091804
0.75068099
0.75066153
0.75057821
0.75330923
0.74696606
0.74692772
0.74731558
0.76949691
0.74864859
0.74698333
0.74715921
0.74822598
0.74672911
0.74695831
0.74707519
0.74759328
0.74698645
0.74695009
0.74693135
0.74809949
0.74673603
0.74699618
0.74709522
0.7475725
0.74697237
0.74697964
0.74695765
0.74788554
0.74676381
0.74703689
0.74712102
0.74757159
0.7470034
0.74699705
0.74696313
0.74764678
0.74677696
0.74707395
0.74714263
0.74755464
0.74704223
0.7470192
0.74696815
0.74747195
0.74679862
0.74710585
0.74716159
0.74753106
0.74707892
0.74704235
0.74697213
0.74733548
0.74682849
0.74713298
0.74718009
0.74750675
0.74711282
0.74706426
0.74697587
0.74723997
0.74686673
0.74715873
0.74720428
0.74748278
0.74714988
0.74708804
0.74698822
0.75161023
0.74383097
0.74338117
0.74370859
0.76439536
0.746422
0.74612868
0.75984195
0.76126788
0.74298572
0.74332449
0.74360445
0.7440423
0.74328102
0.7430645
0.74453478
0.74475275
0.74246731
0.74333204
0.74361909
0.74410518
0.74333085
0.74321673
0.74424017
0.74379299
0.74267447
0.74339835
0.74365431
0.74413692
0.74340402
0.74328957
0.74406987
0.7435036
0.74283433
0.74346518
0.74368548
0.74414452
0.74348317
0.74333362
0.74395276
0.74338624
0.74294424
0.74352444
0.74371362
0.74414082
0.74355429
0.74337868
0.74384994
0.74332081
0.74304579
0.74357383
0.74374048
0.74413172
0.74361695
0.74342517
0.74375627
0.74329278
0.74315384
0.74362368
0.74377401
0.74411955
0.74368113
0.74347596
0.74368013
0.74623464
0.74023814
0.73987216
0.74040249
0.75750448
0.74376806
0.74330208
0.75267663
0.7552457
0.73951279
0.73983704
0.74042928
0.74157735
0.73980138
0.73937764
0.73898815
0.74090692
0.73901324
0.73986412
0.74046359
0.74149317
0.73990444
0.73940746
0.74121919
0.73983349
0.73917588
0.73993192
0.7405081
0.74146625
0.74003386
0.73957889
0.74088079
0.73957857
0.73931751
0.74000915
0.74054678
0.74141042
0.74016462
0.73969624
0.74063352
0.73951734
0.73941442
0.74008084
0.7405796
0.7413526
0.74027789
0.73979334
0.74044726
0.73949771
0.7395036
0.74014791
0.74060897
0.74129585
0.74037336
0.73988272
0.74029321
0.73950171
0.73961139
0.74021933
0.74064364
0.74124086
0.74046879
0.73997489
0.74017332
0.73724463
0.73588659
0.73628648
0.73745975
0.74672286
0.73947103
0.73966979
0.73416309
0.736958
0.73569161
0.73637283
0.73755446
0.74018511
0.73646324
0.73734445
0.73547806
0.7363612
0.73572891
0.73646585
0.73761318
0.73918021
0.73694828
0.73625932
0.73689722
0.73585602
0.73582414
0.73656208
0.73768431
0.73911884
0.7371611
0.73640856
0.73797059
0.73565659
0.73592112
0.73665976
0.73774923
0.73907058
0.7373253
0.73651526
0.73747189
0.73565202
0.73601117
0.73675742
0.7378048
0.73900453
0.73745769
0.7366162
0.73708458
0.73566885
0.73610122
0.73685433
0.73785012
0.73891989
0.73756025
0.73671535
0.736788
0.73570218
0.73620658
0.73695563
0.73789193
0.73882302
0.73765705
0.73680208
0.73658124
0.73139926
0.7314018
0.73230834
0.73530291
0.753582
0.73311867
0.73568548
0.72651658
0.7313624
0.73141391
0.73239369
0.73528542
0.76558649
0.73450352
0.73445895
0.73696374
0.73092424
0.73147574
0.7325165
0.73545426
0.73502436
0.7342104
0.73277175
0.73755929
0.73075777
0.73157199
0.73267532
0.73554197
0.7356564
0.73439998
0.73226062
0.73184203
0.73084763
0.73169372
0.73285906
0.73564302
0.73597674
0.73459432
0.73277839
0.73123471
0.73093411
0.73183
0.73305708
0.7357247
0.73621266
0.73476712
0.73290095
0.73114322
0.73103062
0.73198364
0.73326441
0.73577698
0.73638631
0.73489794
0.73307278
0.7311018
0.73116317
0.73216473
0.73349092
0.73580742
0.73651323
0.7350298
0.73326822
0.73117005
0.72579667
0.72635988
0.72735288
0.73383055
0.73891315
0.73517836
0.73345447
0.75684491
0.72596441
0.72637355
0.72753403
0.73374811
0.75119409
0.74193417
0.73069239
0.7469273
0.72529084
0.72646216
0.72781259
0.73418088
0.74100596
0.7314029
0.72848238
0.75756743
0.72528267
0.72661867
0.72819393
0.73430252
0.74008598
0.73274353
0.72793244
0.72078457
0.72551996
0.72682405
0.72864219
0.73480275
0.74000804
0.73334208
0.72849043
0.72148475
0.72564714
0.72706568
0.72911972
0.73523369
0.73991102
0.73378008
0.72910004
0.7221286
0.72580463
0.72734348
0.72960034
0.73549343
0.73967637
0.73408058
0.72965133
0.72284392
0.72602421
0.72765319
0.73008027
0.73556517
0.73927164
0.73426778
0.73014022
0.72379265
0.718621
0.71988287
0.71977399
0.73377445
0.73792187
0.7213514
0.71948527
0.73630325
0.71854768
0.71983002
0.72011298
0.73413723
0.74052733
0.71997649
0.71832927
0.73150531
0.71814093
0.71990752
0.72062916
0.73431544
0.76070471
0.74217963
0.71797089
0.73880927
0.71806776
0.72010905
0.72146722
0.73612167
0.76245457
0.73201879
0.71811749
0.71627846
0.7182637
0.72040785
0.72243961
0.73735919
0.74458014
0.73071347
0.71964975
0.71619791
0.71845891
0.72080253
0.72350115
0.73813108
0.74476011
0.73252367
0.72096547
0.71631076
0.71874189
0.72128582
0.72459678
0.73848933
0.74489947
0.73266721
0.72204914
0.71664075
0.71917094
0.72184081
0.72561692
0.73827072
0.74424262
0.73266833
0.72328191
0.71741014
0.71189924
0.71137003
0.70581545
0.73292737
0.7610733
0.72192394
0.7083269
0.7127045
0.71142726
0.71076162
0.70679417
0.73926905
0.77107183
0.72040079
0.70764979
0.71179494
0.71104668
0.71056754
0.70785807
0.79863368
0.75638017
0.72753902
0.70850784
0.7153411
0.71092655
0.71085711
0.7104417
0.76830196
0.78078957
0.725976
0.70899172
0.70452534
0.71089198
0.71141402
0.71260774
0.75538654
0.7462485
0.73052355
0.71146401
0.70428996
0.71102145
0.71215492
0.71341295
0.75159428
0.75000654
0.73367363
0.71155095
0.70408825
0.71126757
0.71301488
0.71478713
0.74947736
0.75266895
0.73488676
0.72155305
0.70693577
0.71164178
0.71388296
0.71675091
0.74622069
0.75039878
0.75131079
0.71958678
0.70518457
0.69260113
0.69041437
0.65847282
0.77405036
0.79161453
0.70308064
0.67502573
0.69527741
0.69207429
0.688434
0.65974437
0.7462201
0.79195297
0.70256309
0.676076
0.6896862
0.69129221
0.68716867
0.67973829
0.80723208
0.78343388
0.70425006
0.67508436
0.69794656
0.69103816
0.68699146
0.7128648
0.75460955
0.80175501
0.69881746
0.67369977
0.68330833
0.69128491
0.68921227
0.69143127
0.75316518
0.77881843
0.7078346
0.67596541
0.68125995
0.69173281
0.69060916
0.68933455
0.74695777
0.78250671
0.71806783
0.73059946
0.68171268
0.69236749
0.69197417
0.69194842
0.7410279
0.77706141
0.69377295
0.68641415
0.68208395
0.69332832
0.69356056
0.69361378
0.73136361
0.76378701
0.69156568
0.68501693
0.68207618
0.69368433
0.69339468
0.65669984
0.67484177
0.64528695
0.61871422
0.62072991
0.64335769
0.6975152
0.68578208
0.66160548
0.64446757
0.60594296
0.72947656
0.62346022
0.64022537
0.68438673
0.77184755
0.66217365
0.63865946
0.6113358
0.66037197
0.6304353
0.63744662
0.68906081
0.77222721
0.68145472
0.63789793
0.61162057
0.56954396
0.64622734
0.63553651
0.69134881
0.67093903
0.67321463
0.63641225
0.60413112
0.56981613
0.6385604
0.63599342
0.68807759
0.67359271
0.65794499
0.63377342
0.60919557
0.57550275
0.62795934
0.63489284
0.68640864
0.67618705
0.65317169
0.63767513
0.62400333
0.58132137
0.62933137
0.63449229
0.68671763
0.67691362
0.65051027
0.63900555
0.63892889
0.58842215
0.63126621
0.63582358
0.64328659
0.82680338
0.49938182
8.814325
7.3214191
0.69127766
0.50899358
0.6688463
0.64909959
0.67030572
0.42419731
9.402641
8.1045768
0.55209232
0.47672366
0.66076586
0.64783879
0.67155171
0.51573768
7.7521076
7.3203494
0.59414807
0.52582342
0.6551639
0.6481841
0.5970424
0.62661468
7.195599
7.327225
0.64446717
0.44452684
0.64212957
0.64452392
0.57744991
0.67981854
4.8906797
5.8596364
0.6365236
0.44219918
0.62583668
0.64032557
0.56606298
0.68849071
3.6472732
4.2588187
0.58590259
0.45118401
0.60671874
0.63666271
0.58170631
0.67386584
2.2834708
3.2020563
0.52493962
0.45233542
0.59245744
0.63445916
0.59749106
0.63813679
1.6385179
4.2994331
0.46031289
0.46206819
0.57989504
0.6604135
0.24127643
1.832028
48.15166
51.543663
6.4320154
0.027109463
0.65758968
0.61686498
0.13425801
3.2998303
48.582355
51.500311
8.6067221
-0.17669007
0.59893102
0.56246101
0.2405313
4.0834092
45.767297
51.761241
8.6296401
0.092720987
0.52929237
0.50477927
0.36034577
5.1326315
45.658284
52.495831
10.406049
0.30670864
0.49995113
0.45596525
0.5094739
6.1929701
42.456557
53.657336
9.0998733
0.5370738
0.4764942
0.4281246
0.68230228
5.674371
38.575386
53.779868
7.129778
0.73322098
0.46735218
0.45888402
0.93299555
7.0023874
37.457234
56.287425
5.139777
0.84357838
0.48440617
0.53588298
1.0849202
2.4841219
29.096066
53.371068
6.1510391
1.0106076
0.52837214
0.69156582
-0.097623107
9.3915118
51.066818
52.208676
8.6311056
0.12041484
0.70179692
0.58883985
-0.39558905
11.907541
50.604656
51.967078
10.449631
-0.089700476
0.64678295
0.48283678
-0.02922198
11.051803
49.98266
51.828568
9.1198618
0.2720678
0.57282822
0.50302782
0.27739112
12.351971
49.199265
51.576711
7.1912566
0.48565552
0.4584869
0.53024123
0.60365135
11.605699
48.523609
51.123352
4.3961326
0.47370455
0.38779212
0.36402699
0.9531592
10.003881
48.192535
50.76743
8.5415409
0.55456093
0.4017593
0.42691058
1.2814963
12.092774
45.841685
50.174171
12.493779
0.52886177
0.41768046
0.53977179
1.4387034
6.6842138
29.749582
30.198878
30.150757
1.0041012
0.49491003
0.70191167
0.66787695
-0.24949887
22.406794
5.6937191
0.40837895
0.5116425
0.72459256
0.67128275
0.79140963
-0.36483589
23.589244
6.0818891
0.26279539
0.51919303
0.70672407
1.1568066
0.33120568
0.020611776
24.61692
5.9207586
0.3193855
0.48111948
0.69403683
0.7840031
0.38480686
0.35752535
22.236826
6.3067104
0.45749837
0.45940617
0.66556447
1.6980107
0.10539688
0.54253874
26.1134
7.0154912
0.72970283
0.47522047
0.62784314
0.64183407
0.14642347
0.70273163
25.083133
8.0534607
1.1814095
0.482462
0.59504136
0.39144528
0.13954071
0.6919638
23.329098
9.3200083
1.4792658
0.55638066
0.5686446
0.34311393
0.087862292
1.096524
29.951458
10.780395
0.33668199
0.66839527
0.57128121
0.72845794
0.81621163
0.52502665
1.2973871
0.81959918
0.58695064
0.63205977
0.68153758
0.91014287
0.69248518
0.51071854
1.1967396
0.74924301
0.58346216
0.62756973
0.67942473
0.62321711
0.79229201
0.50991843
1.1364885
0.73922049
0.58931449
0.62104742
0.69147181
0.62661213
0.5365814
0.43834868
1.0694617
0.70669535
0.60437321
0.61525689
0.67538356
0.60428416
0.55107942
0.41788213
0.90652418
0.67068796
0.62820603
0.61285065
0.67257804
0.59692408
0.56064615
0.43719867
0.69709598
0.68324671
0.64178756
0.60918818
0.66637096
0.58015371
0.53200553
0.48897135
0.80053657
0.68264712
0.64569434
0.6117619
0.65691951
0.57110083
0.53698427
0.52142637
0.7087653
0.67993835
0.64330681
0.61350935
0.64839577
0.56817749
0.57279464
0.60098679
0.74201267
0.67954062
0.66544297
0.64572461
0.66734437
0.54688568
0.56265036
0.61878028
0.72766124
0.67753218
0.62959111
0.64336056
0.66577275
0.54931108
0.583728
0.68051491
0.72505511
0.67339142
0.63252692
0.64023889
0.6641285
0.5448033
0.62248173
0.63855822
0.71488535
0.6719593
0.63469305
0.6372179
0.66471198
0.65712161
0.6235145
0.63304057
0.69887565
0.66189064
0.63593866
0.63465612
0.66063259
0.65990672
0.66362697
0.64046304
0.69622523
0.66353964
0.63701229
0.63260925
0.65893696
0.61039686
0.57468333
0.64757273
0.70129433
0.6670604
0.63702845
0.63082774
0.65673034
0.62151345
0.58554394
0.64253812
0.69435104
0.66294738
0.63660448
0.62836759
0.65312969
0.95600197
0.51338478
0.95229209
0.69110893
0.64111718
0.64948733
0.64831564
0.65348614
0.95068502
0.63680655
0.77882628
0.67610948
0.63604242
0.64764983
0.64649352
0.65164896
0.90017217
0.58654892
0.8248533
0.67838881
0.65822823
0.64683094
0.64573748
0.65402199
1.0122701
0.49231631
0.84680967
0.68687975
0.64223046
0.64824423
0.64307006
0.65451876
1.0348762
0.95811457
0.84490517
0.69827266
0.65293223
0.64882275
0.64211442
0.65263594
1.0906247
0.78710686
0.83850636
0.65906999
0.67236611
0.64922809
0.64053698
0.65279646
0.43670328
1.2445455
0.84904533
0.74064412
0.67244665
0.65029712
0.63974354
0.65235341
0.573455
0.56940008
0.84196407
0.62986579
0.66748779
0.65098462
0.63859968
0.65070816
0.7705848
0.6466203
0.82612481
0.77885183
0.63826777
0.66042947
0.6494857
0.6508078
0.70877803
0.67825114
0.76476253
0.69747259
0.62908749
0.64837676
0.64920892
0.64954366
0.68370354
0.64570651
0.80846321
0.68664979
0.6355689
0.64844197
0.64808788
0.65104647
0.68371173
0.65189691
0.81767277
0.68929937
0.6377493
0.64857248
0.64659075
0.64841842
0.7280034
0.72338913
0.81502348
0.69142621
0.64034779
0.64772158
0.65264049
0.65308228
0.6874195
0.68799542
0.88199357
0.68820874
0.64317687
0.6470669
0.64153759
0.64692454
0.63418837
0.90160006
0.90485639
0.70485852
0.64285318
0.64615587
0.6410737
0.64701013
0.6408873
0.60548699
0.86356502
0.65333684
0.6432237
0.64561141
0.64054018
0.6463096
0.87992071
0.68009997
0.67981312
0.68474413
0.62899664
0.65525475
0.64413418
0.63631441
0.89843961
0.65844549
0.6794643
0.68092954
0.63013507
0.6730414
0.64401368
0.63792356
0.89190152
0.64573389
0.67920133
0.68404588
0.63058139
0.67216394
0.64512359
0.63868298
0.82919411
0.65105152
0.67620039
0.66767128
0.63541666
0.6449614
0.64800216
0.6384776
0.89145608
0.61092819
0.66282202
0.66173213
0.62854306
0.64264525
0.64599392
0.64578033
1.1460154
0.64148043
0.63783228
0.66642288
0.63104899
0.64170149
0.64709031
0.64340553
0.50400176
0.59829539
0.62874082
0.69898667
0.63000034
0.63995229
0.64059059
0.64432038
0.53937101
0.59426471
0.6274609
0.71008101
0.62621101
0.63832586
0.63989284
0.64353664
0.67823239
0.60804248
0.76649637
0.6696187
0.64255267
0.68045028
0.63294787
0.62968377
0.67316674
0.61245916
0.76418251
0.66758053
0.64347413
0.70343437
0.63415001
0.63082213
0.66837154
0.61554281
0.76998092
0.66512941
0.6435194
0.64086817
0.63661359
0.62972336
0.65778069
0.61716729
0.77159481
0.66340262
0.64097185
0.6827989
0.63596879
0.63053891
0.65253481
0.61921666
0.77891337
0.64963182
0.64359777
0.64253915
0.63810678
0.62766674
0.65020049
0.61937511
0.76119616
0.64832476
0.6398299
0.6393032
0.63799478
0.63067121
0.63788267
0.62049615
0.81805505
0.64214883
0.63864392
0.63960262
0.6356346
0.63029081
0.64153948
0.62319235
0.79749977
0.65527941
0.636438
0.63864985
0.63558769
0.63129707
0.68973366
0.61131926
0.74990865
0.63708652
0.62568662
0.62806564
0.62367467
0.62312621
0.6935772
0.59856956
0.74609469
0.63435352
0.62632287
0.64730291
0.62487791
0.6260042
0.67758415
0.60869773
0.74907196
0.63608038
0.62575882
0.62629302
0.62851996
0.61950967
0.65521285
0.60965527
0.74457267
0.71415417
0.62573105
0.66057358
0.62121454
0.62152469
0.63837032
0.59672016
0.74263481
0.68817899
0.62748509
0.66081438
0.62269335
0.62227522
0.62823949
0.59685503
0.745789
0.71553357
0.62568684
0.62378033
0.62213969
0.62035501
0.62267688
0.61134156
0.74305044
0.61879667
0.62362955
0.62768353
0.62225425
0.62413078
0.620405
0.61598225
0.73574063
0.67250645
0.61952128
0.62135733
0.62252538
0.62146509
0.60447176
0.61124124
1.352701
0.74071719
0.63665683
0.58436187
0.60081621
0.6011351
0.61775251
0.63144949
0.95488198
0.78171941
0.63748243
0.60004931
0.6007712
0.60287931
0.59646535
0.66528724
0.96475418
0.80584271
0.64130146
0.60360309
0.59929396
0.59972767
0.60273037
0.66417733
1.0253626
0.67432159
0.63667886
0.68050687
0.62124424
0.59941785
0.61738687
0.64457154
1.0098617
0.79324282
0.63999694
0.66323702
0.62739129
0.60525532
0.61228275
0.87510415
1.3814746
0.71593116
0.63616147
0.65182842
0.62159186
0.60781587
0.98346587
0.86221116
0.97431964
0.70014826
0.63219907
0.65803382
0.61371812
0.61821487
0.75990607
0.86425018
1.1393647
0.70693007
0.62520365
0.59927909
0.61347741
0.60779488
0.56710272
0.67620218
0.79340492
0.61511334
0.6037359
0.5706429
0.60760309
0.57333457
0.57318461
0.6735669
0.78806654
0.59349916
0.60422791
0.5774563
0.60902665
0.5738235
0.59738113
0.70307479
0.73533122
0.59112279
0.6039351
0.5817396
0.60819836
0.57440154
0.61371164
0.80173921
0.67932694
0.57441419
0.6033655
0.5926013
0.62374502
0.57486867
0.63897765
0.7022302
0.69717951
0.63169244
0.60577851
0.60623431
0.64113522
0.58086895
0.64644276
0.74490481
0.70308955
0.65668787
0.60757557
0.61530253
0.67252975
0.58769131
0.86368799
0.57417351
0.66190121
0.59213569
0.60623935
0.60630977
0.62137148
0.62408554
0.66259145
0.57514643
0.64195784
0.58703781
0.60823958
0.60530717
0.65612562
0.5898663
0.54525329
0.56654565
0.70193383
0.69448498
0.5990645
0.58358151
0.58314998
0.56953489
0.51571926
0.57034754
0.79369379
0.58588244
0.59953494
0.57954415
0.58745754
0.56585762
0.58577823
0.5840707
0.76433206
0.60525685
0.60101787
0.58022325
0.58753063
0.56648612
0.57641532
0.59514545
0.71369099
0.60750901
0.60169586
0.57614655
0.58845929
0.56751816
0.64076687
0.59234428
0.69582278
0.60284583
0.6027692
0.57709917
0.58981267
0.56929619
0.66275533
0.58574366
0.6428453
0.56149091
0.5975569
0.58002827
0.59023905
0.5685308
0.70336123
0.58553887
0.6363612
0.56594226
0.59942628
0.57754461
0.59136705
0.59414682
0.57636333
0.57996505
0.62654508
0.56981357
0.61440727
0.58248203
0.60117438
0.57210781
0.54239171
0.54398269
0.73194556
0.78304712
0.56411267
0.55604869
0.56311515
0.54979545
0.54590489
0.53309826
0.72066021
0.78288755
0.55829224