/*--------------------------------*- C++ -*----------------------------------*\
  =========                 |
  \\      /  F ield         | OpenFOAM: The Open Source CFD Toolbox
   \\    /   O peration     | Website:  https://openfoam.org
    \\  /    A nd           | Version:  13
     \\/     M anipulation  |
\*---------------------------------------------------------------------------*/
FoamFile
{
    format      ascii;
    class       surfaceScalarField;
    location    "0.12";
    object      phi;
}
// * * * * * * * * * * * * * * * * * * * * * * * * * * * * * * * * * * * * * //

dimensions      [0 3 -1 0 0 0 0];

internalField   nonuniform List<scalar> 
150720
(
2.431119e-10
2.3080363e-09
7.2086144e-10
3.2213493e-10
1.0941273e-10
2.8634559e-09
8.6438788e-10
-1.7471199e-11
2.8555976e-09
8.6543088e-10
4.2819855e-13
2.7463995e-09
8.298457e-10
1.7886885e-11
2.7467642e-09
8.2992172e-10
-1.1103171e-10
2.8573063e-09
8.6575682e-10
-2.5255178e-10
2.8709128e-09
8.6475183e-10
2.2887037e-09
7.2085939e-10
3.3202974e-10
1.0850717e-09
3.3902918e-09
1.6986376e-09
-4.0586151e-10
3.8830339e-10
5.048868e-09
1.9714594e-09
-2.514075e-11
4.7615114e-09
1.9676336e-09
9.5175467e-13
4.2836348e-09
1.8967754e-09
2.6330337e-11
4.2845671e-09
1.8969217e-09
-3.9114003e-10
4.766575e-09
1.9683049e-09
-1.1031178e-09
5.0707944e-09
1.9721995e-09
3.3616445e-09
1.69907e-09
-4.1502536e-10
8.9996849e-10
4.041571e-09
2.3225738e-09
-5.4775944e-10
2.0897038e-10
6.4704242e-09
2.5955039e-09
-1.0629893e-10
5.8262254e-09
2.5766173e-09
1.3958523e-12
5.0079674e-09
2.4940347e-09
1.0849125e-10
5.0093632e-09
2.4941705e-09
-2.0971068e-10
5.8335429e-09
2.5772961e-09
-9.1076948e-10
6.5017481e-09
2.5961671e-09
4.01567e-09
2.3233793e-09
-5.6211235e-10
5.2667422e-10
4.4298138e-09
2.7233846e-09
-4.4628097e-10
2.4989804e-11
7.2283934e-09
2.9357359e-09
-1.3377534e-10
6.2766787e-09
2.9003325e-09
1.7009744e-12
5.2462729e-09
2.8182389e-09
1.3662493e-10
5.2481192e-09
2.8183407e-09
-2.3365472e-11
6.2846606e-09
2.9008933e-09
-5.2841627e-10
7.262678e-09
2.9361416e-09
4.4135542e-09
2.7243898e-09
-4.5866966e-10
1.3990932e-10
4.7041521e-09
2.9577052e-09
-3.1397351e-10
-1.0943601e-10
7.4391844e-09
3.0965336e-09
-1.1261778e-10
6.2851163e-09
3.0527235e-09
1.7782178e-12
5.2121655e-09
2.9776908e-09
1.157435e-10
5.2143616e-09
2.9777716e-09
1.1327239e-10
6.2919282e-09
3.0531828e-09
-1.3498874e-10
7.4722319e-09
3.0966865e-09
4.7016467e-09
2.9588053e-09
-3.239072e-10
-2.1474579e-10
4.9261633e-09
3.0690317e-09
-1.5235903e-10
-2.2011219e-10
7.2333423e-09
3.1351466e-09
-7.5082285e-11
5.9775703e-09
3.0864541e-09
1.682725e-12
5.039456e-09
3.0198824e-09
7.8450585e-11
5.0415805e-09
3.0199513e-09
2.2574355e-10
5.9817283e-09
3.086845e-09
2.2408467e-10
7.2627139e-09
3.135115e-09
4.9379678e-09
3.0701533e-09
-1.584517e-10
-4.4652123e-10
5.073117e-09
3.0818834e-09
7.5808843e-12
-2.3226698e-10
6.7180406e-09
3.0909442e-09
1.0491179e-11
5.4730681e-09
3.0516408e-09
1.1355292e-12
4.8380348e-09
3.0006736e-09
-7.8033045e-12
4.839662e-09
3.0007541e-09
2.3880036e-10
5.4730167e-09
3.0520047e-09
4.5751708e-10
6.7431246e-09
3.0907693e-09
5.0970903e-09
3.0829857e-09
5.3056283e-12
-5.6829394e-10
3.0379031e-09
8.6307537e-11
5.1730557e-09
-8.3725383e-11
3.0105752e-09
5.8787522e-09
2.74238e-10
2.9785762e-09
4.792384e-09
5.7564166e-13
2.9378445e-09
4.8297081e-09
-2.7172783e-10
2.9379344e-09
4.8298865e-09
9.1492956e-11
2.978926e-09
4.7867253e-09
5.7862731e-10
3.0102857e-09
5.9015599e-09
3.0388965e-09
8.6634216e-11
5.2060423e-09
3.2984363e-10
-2.2919463e-10
3.2889776e-10
2.9131469e-10
1.223979e-10
6.0796734e-10
4.6386629e-10
-4.5831133e-11
5.5372899e-10
4.7993092e-10
6.9686833e-13
3.2899638e-10
4.5432132e-10
4.6820345e-11
3.294832e-10
4.5431505e-10
-1.2367102e-10
5.5628297e-10
4.7996521e-10
-3.4040485e-10
6.1762257e-10
4.638631e-10
-2.4864271e-10
3.289306e-10
3.0016666e-10
1.3434172e-09
-3.4877445e-10
1.0241889e-09
-5.4938873e-10
4.1731258e-10
2.1876593e-09
1.3178721e-09
-9.5779131e-11
1.696255e-09
1.3381993e-09
1.6488205e-12
8.51555e-10
1.2767888e-09
9.8535558e-11
8.5276987e-10
1.2767483e-09
-4.1894644e-10
1.7038095e-09
1.3382604e-09
-1.3632253e-09
2.2161793e-09
1.3179217e-09
-3.7583381e-10
1.024599e-09
-5.6156321e-10
1.0582897e-09
-1.8788784e-11
1.5842709e-09
-6.4997256e-10
1.2230597e-10
3.8161034e-09
1.9030435e-09
-2.3321842e-10
2.7256359e-09
1.9027608e-09
2.3360701e-12
1.2857425e-09
1.8242927e-09
2.3749479e-10
1.2876346e-09
1.8241471e-09
-1.2071594e-10
2.7368049e-09
1.9025114e-09
-1.0693009e-09
3.8582676e-09
1.9026638e-09
-3.9880093e-11
1.5846332e-09
-6.6650847e-10
5.0753832e-10
6.2873486e-10
2.0108915e-09
-4.4256881e-10
-1.8277851e-10
5.1510219e-09
2.2911343e-09
-3.0686096e-10
3.4835605e-09
2.2664903e-09
2.728349e-12
1.6110856e-09
2.1833064e-09
3.1203819e-10
1.6136149e-09
2.1830506e-09
1.8754973e-10
3.4963323e-09
2.2658545e-09
-5.075784e-10
5.1993739e-09
2.2901635e-09
6.2118982e-10
2.0109259e-09
-4.5518441e-10
-7.6911744e-11
1.5116792e-09
2.3258203e-09
-1.741477e-10
-4.1737348e-10
6.0324951e-09
2.5555221e-09
-3.1047077e-10
3.9108463e-09
2.5185351e-09
2.7707527e-12
1.8368733e-09
2.4386616e-09
3.1595408e-10
1.8398531e-09
2.4383501e-09
4.2499126e-10
3.9228124e-09
2.5176655e-09
8.4435552e-11
6.0824989e-09
2.5541172e-09
1.5211733e-09
2.3254244e-09
-1.8216696e-10
-6.0798288e-10
2.491808e-09
2.5440996e-09
1.5278616e-10
-6.0920052e-10
6.4451991e-09
2.7236602e-09
-2.6973178e-10
3.9749312e-09
2.6829005e-09
2.5175714e-12
1.9745071e-09
2.6099994e-09
2.7512755e-10
1.9775187e-09
2.6096757e-09
6.1933908e-10
3.9835218e-09
2.681924e-09
6.2291543e-10
6.4920897e-09
2.7219478e-09
2.5199162e-09
2.5432645e-09
1.5106131e-10
-9.7983235e-10
3.412898e-09
2.6755126e-09
4.6511322e-10
-6.5588533e-10
6.3914142e-09
2.8207821e-09
-1.643498e-10
3.7376237e-09
2.7974127e-09
1.692467e-12
2.0671664e-09
2.741972e-09
1.685024e-10
2.0697642e-09
2.7416987e-09
6.6703228e-10
3.7405031e-09
2.7964936e-09
9.9735833e-10
6.4335992e-09
2.8189337e-09
3.4558049e-09
2.6742532e-09
4.702021e-10
-1.1706766e-09
2.7333174e-09
6.3538352e-10
4.2527767e-09
-4.4407326e-10
2.8614178e-09
5.8139683e-09
1.6697308e-10
2.847725e-09
3.2574286e-09
7.0021882e-13
2.8047035e-09
2.3665803e-09
-1.6374511e-10
2.8044745e-09
2.3676693e-09
4.5551624e-10
2.8468735e-09
3.2532943e-09
1.1878002e-09
2.8595584e-09
5.8520426e-09
2.7316818e-09
6.4415711e-10
4.3066627e-09
3.4075028e-10
-5.5814382e-10
2.2855649e-10
3.1773483e-10
1.0095834e-10
3.6655702e-10
3.3710121e-10
-7.7184396e-11
3.0361969e-10
3.5445398e-10
7.0362138e-13
3.6707944e-11
3.3972537e-10
7.8199627e-11
3.7242719e-11
3.3957633e-10
-1.0222731e-10
3.0632023e-10
3.5407192e-10
-3.5152026e-10
3.7651158e-10
3.3664448e-10
-5.7781479e-10
2.2849006e-10
3.2673509e-10
1.4240012e-09
-1.0826399e-09
7.2710437e-10
-6.024206e-10
3.7466291e-10
1.7490673e-09
9.8470017e-10
-1.7223593e-10
1.1716279e-09
1.01709e-09
1.6429334e-12
1.5738082e-10
9.8223711e-10
1.7507198e-10
1.5871751e-10
9.8184449e-10
-3.7614377e-10
1.1796773e-09
1.0161191e-09
-1.4443351e-09
1.7790503e-09
9.8357424e-10
-1.1102958e-09
7.2709911e-10
-6.1435417e-10
1.0717241e-09
-1.0191143e-09
1.1448855e-09
-6.9586425e-10
9.3648037e-12
3.277508e-09
1.4369621e-09
-3.4655538e-10
1.9736913e-09
1.4566176e-09
2.2246963e-12
2.2108129e-10
1.4118122e-09
3.5082242e-10
2.2311948e-10
1.4111474e-09
-7.4743628e-12
1.9856698e-09
1.4548156e-09
-1.0828553e-09
3.3223992e-09
1.4346957e-09
-1.0406774e-09
1.1442017e-09
-7.120421e-10
4.2351893e-10
-4.8562262e-10
1.4958061e-09
-4.4192519e-10
-3.4600221e-10
4.5674018e-09
1.7707618e-09
-4.4037042e-10
2.5607964e-09
1.7737533e-09
2.4648401e-12
2.3465787e-10
1.7268946e-09
4.4529971e-10
2.3733756e-10
1.7259976e-09
3.511565e-10
2.5744999e-09
1.7711677e-09
-4.2317988e-10
4.6196069e-09
1.7672922e-09
-4.9310302e-10
1.4940344e-09
-4.5386271e-10
-2.431324e-10
4.0437691e-10
1.786697e-09
-1.0774381e-10
-6.3066554e-10
5.4706218e-09
2.0398352e-09
-4.4770737e-10
2.8559191e-09
2.0404542e-09
2.3634745e-12
2.2496948e-10
1.9982791e-09
4.5269277e-10
2.2809269e-10
1.9972657e-09
6.3868518e-10
2.8687514e-09
2.0374216e-09
2.5265104e-10
5.524227e-09
2.0355312e-09
4.1565378e-10
1.783832e-09
-1.1451333e-10
-8.7016875e-10
1.503936e-09
2.0188706e-09
2.9583872e-10
-8.5470778e-10
5.9257141e-09
2.253107e-09
-3.9769103e-10
2.8201912e-09
2.2616117e-09
1.9669813e-12
2.0727986e-10
2.228031e-09
4.0235057e-10
2.1040062e-10
2.2269842e-09
8.6526921e-10
2.8293613e-09
2.2583955e-09
8.8677967e-10
5.9763818e-09
2.2482827e-09
1.5344549e-09
2.0149876e-09
2.9625544e-10
-1.3045178e-09
2.6227618e-09
2.1912783e-09
6.6992623e-10
-9.0450423e-10
5.9241671e-09
2.4223155e-09
-2.6653758e-10
2.5185837e-09
2.4610535e-09
1.0354007e-12
2.342704e-10
2.4474085e-09
2.6976441e-10
2.3693114e-10
2.4464392e-09
9.1595175e-10
2.5216927e-09
2.4579749e-09
1.3240436e-09
5.969901e-09
2.4173226e-09
2.6689624e-09
2.1865042e-09
6.7728521e-10
-1.5283457e-09
2.3172478e-09
8.8556681e-10
3.6816103e-09
-6.5507417e-10
2.5558282e-09
5.3564852e-09
1.1232666e-10
2.6130877e-09
1.9858203e-09
-1.8737335e-13
2.6118547e-09
5.3963323e-10
-1.1052723e-10
2.6109592e-09
5.4078632e-10
6.6661974e-10
2.6101844e-09
1.9812348e-09
1.5474749e-09
2.5508675e-09
5.3977367e-09
2.3117759e-09
8.9690571e-10
3.7394375e-09
3.5139262e-10
-6.510427e-10
1.7956464e-10
3.4864195e-10
7.9196177e-11
3.3058868e-10
2.7870898e-10
-1.0357761e-10
2.3596182e-10
3.0126596e-10
6.3836501e-13
-5.8564378e-11
2.9407378e-10
1.0446764e-10
-5.8061759e-11
2.9380882e-10
-8.0594209e-11
2.3856631e-10
3.0056746e-10
-3.6226556e-10
3.4034975e-10
2.7796609e-10
-6.7095946e-10
1.7955082e-10
3.5763313e-10
1.5197834e-09
-1.3836167e-09
6.0511891e-10
-6.652239e-10
3.4586969e-10
1.6455449e-09
8.4365767e-10
-2.3188155e-10
9.4070609e-10
8.9009695e-10
1.4435257e-12
-1.8419965e-10
8.7454732e-10
2.3440734e-10
-1.8302282e-10
8.7384174e-10
-3.476227e-10
9.4843783e-10
8.8827765e-10
-1.5408325e-09
1.6754777e-09
8.416561e-10
-1.4132644e-09
6.0501056e-10
-6.7643899e-10
1.1121839e-09
-1.5468876e-09
9.6356092e-10
-7.6758848e-10
-7.6236477e-11
3.0364921e-09
1.2344353e-09
-4.3566373e-10
1.4802828e-09
1.2764681e-09
1.7889641e-12
-4.6919549e-10
1.2593553e-09
4.3922972e-10
-4.6751854e-10
1.2582023e-09
7.7561088e-11
1.4916128e-09
1.2733093e-09
-1.1243484e-09
3.0814826e-09
1.2306003e-09
-1.5724131e-09
9.6221111e-10
-7.8320918e-10
3.842424e-10
-1.216936e-09
1.2678262e-09
-4.8621413e-10
-4.6945621e-10
4.1340511e-09
1.5269013e-09
-5.4101995e-10
1.7639058e-09
1.5616941e-09
1.7614274e-12
-8.3406759e-10
1.5489853e-09
5.4474698e-10
-8.3196911e-10
1.5474627e-09
4.736572e-10
1.7765389e-09
1.5573314e-09
-3.8522067e-10
4.1864449e-09
1.5212078e-09
-1.2303324e-09
1.2646938e-09
-4.9796071e-10
-3.4711434e-10
-4.9452897e-10
1.5272515e-09
-1.1584721e-10
-7.7827367e-10
4.8288097e-09
1.776236e-09
-5.4398931e-10
1.7509849e-09
1.8190908e-09
1.4539538e-12
-1.1977436e-09
1.8165118e-09
5.4735305e-10
-1.1953905e-09
1.814788e-09
7.8497323e-10
1.7623204e-09
1.81402e-09
3.555833e-10
4.8821297e-09
1.7692364e-09
-4.903495e-10
1.5224037e-09
-1.2297134e-10
-1.0347078e-09
4.8384282e-10
1.7440126e-09
3.3119407e-10
-1.0108062e-09
5.0683668e-09
1.9896483e-09
-4.7809446e-10
1.4290329e-09
2.050852e-09
9.1837261e-13
-1.5097378e-09
2.0610124e-09
4.8081707e-10
-1.5075214e-09
2.0592164e-09
1.0198283e-09
1.4362422e-09
2.0454625e-09
1.0502238e-09
5.1182033e-09
1.9818135e-09
5.0655576e-10
1.7376081e-09
3.3069806e-10
-1.4985822e-09
1.5140668e-09
1.9160018e-09
7.4363472e-10
-1.0424032e-09
4.8580783e-09
2.1764251e-09
-3.1750743e-10
8.876618e-10
2.2775289e-09
-1.0210129e-13
-1.6905488e-09
2.3108142e-09
3.1864592e-10
-1.6889392e-09
2.309109e-09
1.052007e-09
8.8856352e-10
2.2722925e-09
1.5170197e-09
4.9022218e-09
2.1682914e-09
1.5522775e-09
1.9082458e-09
7.4955637e-10
-1.7257308e-09
2.0519936e-09
9.7823742e-10
2.5268144e-09
-7.4359845e-10
2.3382152e-09
4.0935589e-09
1.1552389e-10
2.465865e-09
1.7576212e-10
-1.4445057e-12
2.5135341e-09
-1.4752598e-09
-1.1628203e-10
2.5119312e-09
-1.4750736e-09
7.5291203e-10
2.4608751e-09
1.686788e-10
1.743531e-09
2.3300601e-09
4.1324103e-09
2.0431977e-09
9.8767993e-10
2.5767068e-09
3.7685113e-10
-7.3887382e-10
1.6058951e-10
3.8099783e-10
7.1860891e-11
3.2971527e-10
2.5398396e-10
-1.2292821e-10
2.1464379e-10
2.8141127e-10
5.1815474e-13
-1.091595e-10
2.7978692e-10
1.2358109e-10
-1.0865243e-10
2.7939833e-10
-7.3424932e-11
2.1715105e-10
2.8042244e-10
-3.8763281e-10
3.3923461e-10
2.5293937e-10
-7.582999e-10
1.6056781e-10
3.8965011e-10
1.6459073e-09
-1.5971314e-09
5.4419013e-10
-7.2672099e-10
3.4476629e-10
1.7022616e-09
7.7225236e-10
-2.7782075e-10
8.9367382e-10
8.3365397e-10
1.0894827e-12
-3.4674743e-10
8.3322502e-10
2.7975437e-10
-3.4567788e-10
8.3220232e-10
-3.4696108e-10
9.0107627e-10
8.3106789e-10
-1.6674206e-09
1.7319178e-09
7.694325e-10
-1.627977e-09
5.4389807e-10
-7.3663109e-10
1.1874289e-09
-1.8487038e-09
8.6584827e-10
-8.3814373e-10
-1.3220577e-10
3.1292086e-09
1.127123e-09
-5.1066196e-10
1.354675e-09
1.1939231e-09
1.0936967e-12
-7.9881588e-10
1.1996681e-09
5.1306514e-10
-7.9748042e-10
1.1980334e-09
1.3258626e-10
1.365318e-09
1.1895465e-09
-1.200774e-09
3.1740433e-09
1.1218351e-09
-1.8778549e-09
8.6381161e-10
-8.5249664e-10
3.7747755e-10
-1.5695041e-09
1.1414007e-09
-5.3025174e-10
-5.7009462e-10
4.2082226e-09
1.3954594e-09
-6.3084458e-10
1.5128405e-09
1.4642785e-09
7.5022391e-13
-1.3621298e-09
1.4807044e-09
6.3276884e-10
-1.3606108e-09
1.4785744e-09
5.7272282e-10
1.5243687e-09
1.4583267e-09
-3.8034626e-10
4.2605956e-09
1.3877246e-09
-1.5891514e-09
1.1369835e-09
-5.4133949e-10
-4.2650072e-10
-8.7101485e-10
1.3804751e-09
-1.25212e-10
-9.111296e-10
4.8375908e-09
1.6314968e-09
-6.3421961e-10
1.3381356e-09
1.7168857e-09
2.7223282e-13
-1.9284001e-09
1.7482903e-09
6.3529756e-10
-1.9267315e-09
1.7458834e-09
9.1568904e-10
1.3480141e-09
1.7099831e-09
4.3289569e-10
4.8905912e-09
1.6220342e-09
-8.7509458e-10
1.3738258e-09
-1.3258327e-10
-1.1820004e-09
1.0687737e-10
1.5853231e-09
3.6279769e-10
-1.162173e-09
4.9656291e-09
1.8417825e-09
-5.5820029e-10
8.3217578e-10
1.9528391e-09
-3.9602236e-13
-2.4258229e-09
2.0006309e-09
5.5832767e-10
-2.4243507e-09
1.9981119e-09
1.1687231e-09
8.3760632e-10
1.9454748e-09
1.1953764e-09
5.0145549e-09
1.8311964e-09
1.2012787e-10
1.576673e-09
3.6108903e-10
-1.6851337e-09
1.1426344e-09
1.7539195e-09
8.1145902e-10
-1.1873818e-09
4.6099189e-09
2.0343834e-09
-3.7455446e-10
1.0609381e-10
2.1907835e-09
-1.3927758e-12
-2.7524795e-09
2.2643091e-09
3.7304916e-10
-2.7515671e-09
2.2618835e-09
1.1941704e-09
1.0521889e-10
2.1835587e-09
1.7013249e-09
4.6523214e-09
2.0233705e-09
1.1708145e-09
1.7435637e-09
8.1532041e-10
-1.9250723e-09
1.8953146e-09
1.0612558e-09
2.1631298e-09
-8.411563e-10
2.2106324e-09
3.6535856e-09
1.1059667e-10
2.3963689e-09
-7.7616304e-10
-2.7590174e-12
2.4868328e-09
-2.6124225e-09
-1.1442276e-10
2.4845202e-09
-2.6124924e-09
8.4712239e-10
2.3893788e-09
-7.8483e-10
1.9403896e-09
2.1995167e-09
3.6895975e-09
1.8836377e-09
1.0679162e-09
2.2028479e-09
4.0381861e-10
-8.055284e-10
1.4981192e-10
4.1248739e-10
6.7078314e-11
3.4971568e-10
2.4100858e-10
-1.4070142e-10
2.1555612e-10
2.736349e-10
3.723397e-13
-1.3870446e-10
2.7741763e-10
1.4108261e-10
-1.3826136e-10
2.7694943e-10
-6.8673647e-11
2.1770696e-10
2.7247174e-10
-4.1428616e-10
3.5874292e-10
2.3980896e-10
-8.2409294e-10
1.4981044e-10
4.2056416e-10
1.7755111e-09
-1.7625572e-09
5.1238816e-10
-7.8668031e-10
3.4944708e-10
1.8116874e-09
7.3634466e-10
-3.1970333e-10
9.0567295e-10
8.1268756e-10
6.6424981e-13
-4.5242947e-10
8.2658246e-10
3.2094585e-10
-4.5166886e-10
8.2532823e-10
-3.5206864e-10
9.1222594e-10
8.0956341e-10
-1.7972507e-09
1.8403918e-09
7.3296577e-10
-1.7944069e-09
5.119055e-10
-7.9494423e-10
1.2689637e-09
-2.0773352e-09
8.1776177e-10
-9.0609924e-10
-1.7984216e-10
3.3096114e-09
1.0780049e-09
-5.8009815e-10
1.3306592e-09
1.1691929e-09
3.2742424e-13
-1.0294593e-09
1.1962724e-09
5.8110393e-10
-1.0286849e-09
1.194273e-09
1.7907053e-10
1.3398824e-09
1.1639234e-09
-1.2836529e-09
3.3532901e-09
1.0716603e-09
-2.1104969e-09
8.1508567e-10
-9.1883688e-10
3.7914883e-10
-1.8244028e-09
1.0804388e-09
-5.7111936e-10
-6.6183419e-10
4.4071697e-09
1.3388842e-09
-7.1448328e-10
1.4071686e-09
1.4404182e-09
-3.6027576e-13
-1.7463756e-09
1.4834977e-09
7.1424028e-10
-1.7456114e-09
1.4809004e-09
6.6244169e-10
1.4167299e-09
1.4332778e-09
-3.8450061e-10
4.4583233e-09
1.3296336e-09
-1.851533e-09
1.074918e-09
-5.8139894e-10
-4.9666296e-10
-1.1272715e-09
1.3100303e-09
-1.3002358e-10
-1.0348382e-09
5.0057265e-09
1.5711152e-09
-7.1845146e-10
1.1120089e-09
1.6956587e-09
-1.0986341e-12
-2.4727958e-09
1.7573578e-09
7.1681871e-10
-2.4720547e-09
1.7544093e-09
1.0366253e-09
1.1195569e-09
1.6873495e-09
5.000743e-10
5.0571134e-09
1.5597951e-09
-1.1418502e-09
1.3018779e-09
-1.3766061e-10
-1.3200169e-09
-1.3128349e-10
1.5089841e-09
4.0036781e-10
-1.3047841e-09
5.0510621e-09
1.7812142e-09
-6.3307327e-10
4.5713741e-10
1.9359999e-09
-1.8948514e-12
-3.1196581e-09
2.0163148e-09
6.3017779e-10
-3.1192201e-09
2.0132047e-09
1.3081296e-09
4.600085e-10
1.9270714e-09
1.3302228e-09
5.0976977e-09
1.7685189e-09
-1.3068433e-10
1.4984935e-09
3.9723647e-10
-1.8634965e-09
9.2516489e-10
1.6753954e-09
8.855723e-10
-1.3243254e-09
4.569589e-09
1.9766854e-09
-4.2742506e-10
-4.2792383e-10
2.1789444e-09
-2.8067644e-12
-3.5654399e-09
2.2854725e-09
4.2294323e-10
-3.5655191e-09
2.2824325e-09
1.3275481e-09
-4.3110038e-10
2.1700627e-09
1.8764246e-09
4.6087826e-09
1.9634091e-09
9.394486e-10
1.6629492e-09
8.869062e-10
-2.1163997e-09
1.8170541e-09
1.151938e-09
1.9678871e-09
-9.3405829e-10
2.1577541e-09
3.440126e-09
1.0980715e-10
2.3904014e-09
-1.4658217e-09
-4.1425275e-12
2.513829e-09
-3.4784864e-09
-1.1700535e-10
2.5108922e-09
-3.4790283e-09
9.3590872e-10
2.3817254e-09
-1.4763611e-09
2.1282231e-09
2.144269e-09
3.4717159e-09
1.8030688e-09
1.1552382e-09
1.9930025e-09
4.3231362e-10
-8.6855019e-10
1.4434725e-10
4.4170126e-10
6.5983135e-11
3.7300405e-10
2.3433502e-10
-1.5630208e-10
2.2370222e-10
2.722179e-10
1.9441199e-13
-1.6068813e-10
2.8160928e-10
1.5637185e-10
-1.6029538e-10
2.8106738e-10
-6.769245e-11
2.2562488e-10
2.7091117e-10
-4.4231192e-10
3.8138446e-10
2.3304398e-10
-8.8587007e-10
1.4431888e-10
4.4904972e-10
1.9050614e-09
-1.9087385e-09
4.9113029e-10
-8.4361519e-10
3.602991e-10
1.9399918e-09
7.1411919e-10
-3.5675496e-10
9.474096e-10
8.0603425e-10
1.7652699e-13
-5.2588614e-10
8.3484899e-10
3.5718181e-10
-5.2538695e-10
8.3341452e-10
-3.6335574e-10
9.5322186e-10
8.0250399e-10
-1.9267607e-09
1.9674188e-09
7.1033644e-10
-1.9411996e-09
4.9050938e-10
-8.5003508e-10
1.354569e-09
-2.2622046e-09
7.8662783e-10
-9.6996899e-10
-2.1752603e-10
3.5381024e-09
1.0519893e-09
-6.4290583e-10
1.3733704e-09
1.1686119e-09
-5.6327485e-13
-1.1894668e-09
1.2175105e-09
6.4229407e-10
-1.1892323e-09
1.215261e-09
2.1575733e-10
1.380942e-09
1.16274e-09
-1.3704838e-09
3.5804405e-09
1.0448797e-09
-2.2993056e-09
7.8356137e-10
-9.808535e-10
3.8886996e-10
-2.0053906e-09
1.0432566e-09
-6.0850159e-10
-7.4287001e-10
4.6943482e-09
1.3143784e-09
-7.9118991e-10
1.4124402e-09
1.4496684e-09
-1.6656516e-12
-2.0147277e-09
1.5192343e-09
7.8849231e-10
-2.0148247e-09
1.5163349e-09
7.4124177e-10
1.4196748e-09
1.4417956e-09
-3.9677336e-10
4.7438798e-09
1.3042095e-09
-2.0405196e-09
1.0371698e-09
-6.1781108e-10
-5.5763423e-10
-1.2757635e-09
1.269494e-09
-1.3145655e-10
-1.1483296e-09
5.3066163e-09
1.5495425e-09
-7.9664797e-10
1.0433433e-09
1.7130739e-09
-2.6478396e-12
-2.8552708e-09
1.8039008e-09
7.9198596e-10
-2.8556513e-09
1.8006022e-09
1.1470428e-09
1.0480617e-09
1.7039057e-09
5.5781059e-10
5.3558194e-09
1.5370877e-09
-1.302055e-09
1.2605991e-09
-1.3937522e-10
-1.4488457e-09
-2.2684048e-10
1.4674154e-09
4.414914e-10
-1.4389219e-09
5.3143422e-09
1.7635645e-09
-7.0362064e-10
2.8404809e-10
1.9599938e-09
-3.5511613e-12
-3.6094217e-09
2.0703962e-09
6.9737657e-10
-3.6102709e-09
2.0668965e-09
1.438696e-09
2.8371826e-10
1.9500955e-09
1.4555691e-09
5.3578674e-09
1.7495978e-09
-2.4073577e-10
1.4559962e-09
4.3674719e-10
-2.0354784e-09
8.8516043e-10
1.6350182e-09
9.6385463e-10
-1.4558213e-09
4.7482008e-09
1.9631697e-09
-4.7819511e-10
-7.2087e-10
2.2062363e-09
-4.3380582e-12
-4.1395925e-09
2.3417863e-09
4.7045051e-10
-4.1409458e-09
2.3383189e-09
1.4551304e-09
-7.2718749e-10
2.1962886e-09
2.0448319e-09
4.7831066e-09
1.9484683e-09
8.8339949e-10
1.6214118e-09
9.6223405e-10
-2.3048398e-09
1.7789639e-09
1.2487133e-09
1.979377e-09
-1.0275135e-09
2.1482289e-09
3.4803998e-09
1.0757517e-10
2.4206313e-09
-1.8861886e-09
-5.5971103e-12
2.5710225e-09
-4.0836137e-09
-1.1834945e-10
2.5676287e-09
-4.08493e-09
1.0248692e-09
2.4107884e-09
-1.8994691e-09
2.3128127e-09
2.1331976e-09
3.5062345e-09
1.7636364e-09
1.2481738e-09
1.9874708e-09
4.5903699e-10
-9.2293187e-10
1.4101519e-10
4.6722695e-10
6.5828059e-11
3.973201e-10
2.3022386e-10
-1.7032249e-10
2.3482614e-10
2.7354232e-10
2.0484435e-14
-1.7760589e-10
2.8887221e-10
1.7010392e-10
-1.7733693e-10
2.8832087e-10
-6.7541322e-11
2.3641826e-10
2.7213815e-10
-4.6831207e-10
4.0522071e-10
2.2859402e-10
-9.3855315e-10
1.4054474e-10
4.7401522e-10
2.0248222e-09
-2.0343175e-09
4.7399081e-10
-8.9629711e-10
3.7237338e-10
2.0658772e-09
6.9801089e-10
-3.9004212e-10
9.9662797e-10
8.0664792e-10
-2.958685e-13
-5.8363013e-10
8.5112698e-10
3.8965617e-10
-5.8352939e-10
8.4965496e-10
-3.7570788e-10
1.0014161e-09
8.0287021e-10
-2.0466087e-09
2.0928661e-09
6.935919e-10
-2.0672631e-09
4.7266129e-10
-9.000506e-10
1.4354526e-09
-2.4176503e-09
7.6285429e-10
-1.0283463e-09
-2.4801202e-10
3.7637694e-09
1.0375618e-09
-6.9984103e-10
1.4349447e-09
1.1821242e-09
-1.4826443e-12
-1.318084e-09
1.253606e-09
6.975847e-10
-1.3186579e-09
1.2513222e-09
2.4521608e-10
1.4404956e-09
1.1760291e-09
-1.4524668e-09
3.805315e-09
1.0301136e-09
-2.4590098e-09
7.5950277e-10
-1.0366615e-09
4.0039821e-10
-2.1500761e-09
1.0173671e-09
-6.4208289e-10
-8.1545567e-10
4.9863893e-09
1.3076123e-09
-8.6118099e-10
1.4511568e-09
1.4791816e-09
-2.9943185e-12
-2.232766e-09
1.5757297e-09
8.5592069e-10
-2.2340435e-09
1.5728054e-09
8.1154854e-10
1.4554852e-09
1.4711782e-09
-4.1086077e-10
5.0347397e-09
1.2971941e-09
-2.1939364e-09
1.0112465e-09
-6.5001084e-10
-6.1160611e-10
-1.3821681e-09
1.2441165e-09
-1.3092433e-10
-1.2515133e-09
5.6257102e-09
1.5501289e-09
-8.6830893e-10
1.0263932e-09
1.7546331e-09
-4.2263116e-12
-3.1674315e-09
1.8744836e-09
8.604585e-10
-3.1692702e-09
1.8711441e-09
1.2470232e-09
1.0274929e-09
1.7453334e-09
6.0851636e-10
5.6727908e-09
1.5375434e-09
-1.4211291e-09
1.2352428e-09
-1.3893474e-10
-1.566262e-09
-2.753248e-10
1.444316e-09
4.825181e-10
-1.5620422e-09
5.614017e-09
1.7710379e-09
-7.6841714e-10
1.8290216e-10
2.0098598e-09
-5.2365517e-12
-4.0095943e-09
2.1493784e-09
7.5865511e-10
-4.0120712e-09
2.1458059e-09
1.5580108e-09
1.7844917e-10
1.9997836e-09
1.5694466e-09
5.6540569e-09
1.756896e-09
-3.0472558e-10
1.4329031e-09
4.7613612e-10
-2.1943736e-09
8.9776193e-10
1.6156269e-09
1.0406782e-09
-1.5779678e-09
4.9847375e-09
1.9760434e-09
-5.2482229e-10
-9.229592e-10
2.2589522e-09
-5.8933873e-12
-4.6077549e-09
2.421018e-09
5.1367449e-10
-4.6107339e-09
2.4174138e-09
1.5730524e-09
-9.3332083e-10
2.2486807e-09
2.200009e-09
5.0145135e-09
1.9610551e-09
8.7880332e-10
1.6019734e-09
1.0359185e-09
-2.4807597e-09
1.7629866e-09
1.3445507e-09
2.0499482e-09
-1.1155572e-09
2.1644782e-09
3.6032857e-09
1.0498379e-10
2.4735047e-09
-2.1963736e-09
-7.0644467e-12
2.6475868e-09
-4.5722709e-09
-1.1944688e-10
2.6440063e-09
-4.5747291e-09
1.1081593e-09
2.4632209e-09
-2.2133594e-09
2.4847456e-09
2.1490211e-09
3.6221037e-09
1.7474975e-09
1.3397874e-09
2.0399005e-09
4.8109784e-10
-9.7071891e-10
1.3827288e-10
4.9236339e-10
6.6381496e-11
4.1843959e-10
2.2650063e-10
-1.824645e-10
2.45143e-10
2.7724532e-10
-1.4908472e-13
-1.9185464e-10
2.9841145e-10
1.8197509e-10
-1.9164461e-10
2.9784132e-10
-6.8182574e-11
2.4661055e-10
2.7568527e-10
-4.9071344e-10
4.2647784e-10
2.2464706e-10
-9.8400026e-10
1.3801833e-10
4.9581324e-10
2.1278323e-09
-2.1225193e-09
4.5926233e-10
-9.6130343e-10
3.8531359e-10
2.1758652e-09
6.8310404e-10
-4.1874983e-10
1.0433955e-09
8.124588e-10
-7.9176757e-13
-6.3121167e-10
8.7252596e-10
4.1765639e-10
-6.3147406e-10
8.7103625e-10
-3.8878052e-10
1.047481e-09
8.0843672e-10
-2.1507179e-09
2.2038838e-09
6.7812327e-10
-2.1638242e-09
4.5686729e-10
-9.5509992e-10
1.5053998e-09
-2.5114333e-09
7.442277e-10
-1.0978592e-09
-2.7267475e-10
3.9641478e-09
1.0273537e-09
-7.4960434e-10
1.4977333e-09
1.204716e-09
-2.363357e-12
-1.4238001e-09
1.2989535e-09
7.4592961e-10
-1.4251659e-09
1.2967211e-09
2.692709e-10
1.5015616e-09
1.1986072e-09
-1.5244768e-09
4.008191e-09
1.0195541e-09
-2.5717408e-09
7.3932852e-10
-1.096386e-09
4.1147255e-10
-2.224019e-09
9.9883817e-10
-6.8035796e-10
-8.776663e-10
5.2530019e-09
1.3078971e-09
-9.2283141e-10
1.5007978e-09
1.5212822e-09
-4.2183699e-12
-2.4119049e-09
1.6452215e-09
9.1543748e-10
-2.414436e-09
1.6424196e-09
8.7227947e-10
1.5024039e-09
1.5134938e-09
-4.24111e-10
5.3039439e-09
1.2978317e-09
-2.2928405e-09
9.9147605e-10
-6.8324076e-10
-6.576853e-10
-1.417938e-09
1.2276261e-09
-1.3190528e-10
-1.341888e-09
5.9267937e-09
1.5605399e-09
-9.3184262e-10
1.0344882e-09
1.8108974e-09
-5.6591085e-12
-3.4237363e-09
1.9601315e-09
9.2130027e-10
-3.4271968e-09
1.9569456e-09
1.3350096e-09
1.0320749e-09
1.8019531e-09
6.5255256e-10
5.9753192e-09
1.5486252e-09
-1.484362e-09
1.2179596e-09
-1.3864277e-10
-1.6685353e-09
-2.5765615e-10
1.4314511e-09
5.2111846e-10
-1.6712843e-09
5.9102633e-09
1.7903172e-09
-8.2633933e-10
1.2400536e-10
2.0753976e-09
-6.7593489e-12
-4.3378796e-09
2.2439417e-09
8.1352219e-10
-4.3421954e-09
2.2405229e-09
1.6643289e-09
1.1533763e-10
2.0657141e-09
1.6695702e-09
5.949895e-09
1.7770789e-09
-3.1488207e-10
1.4196738e-09
5.1331962e-10
-2.3345387e-09
9.7129961e-10
1.6077468e-09
1.113463e-09
-1.6871382e-09
5.2369414e-09
2.0019649e-09
-5.6709928e-10
-1.0636508e-09
2.3265694e-09
-7.324646e-12
-4.9910779e-09
2.5144417e-09
5.5289891e-10
-4.9959363e-09
2.5109312e-09
1.6788246e-09
-1.0784588e-09
2.3165514e-09
2.3378703e-09
5.2640898e-09
1.9878146e-09
9.2583002e-10
1.5939693e-09
1.1051624e-09
-2.6376761e-09
1.7593044e-09
1.4363206e-09
2.1763374e-09
-1.1954955e-09
2.1940718e-09
3.7651671e-09
1.013114e-10
2.5398715e-09
-2.4268245e-09
-8.4287494e-12
2.7361749e-09
-4.9699259e-09
-1.1909475e-10
2.7326396e-09
-4.9739036e-09
1.1842194e-09
2.5297294e-09
-2.4482814e-09
2.6390448e-09
2.1793084e-09
3.7789771e-09
1.7439102e-09
1.426699e-09
2.1417632e-09
5.0070329e-10
-1.0172553e-09
1.3401394e-10
5.2081091e-10
6.7564526e-11
4.3673342e-10
2.2290598e-10
-1.9320593e-10
2.4907747e-10
2.8893832e-10
-3.6410074e-13
-2.0513585e-10
3.1070547e-10
1.9225907e-10
-2.049244e-10
3.1014255e-10
-6.9570369e-11
2.5008114e-10
2.8743358e-10
-5.092121e-10
4.4361121e-10
2.2067759e-10
-1.0275731e-09
1.3307943e-10
5.2329991e-10
2.2148437e-09
-2.1883685e-09
4.4828533e-10
-1.0327534e-09
3.9835656e-10
2.2676741e-09
6.6865043e-10
-4.4405664e-10
1.0734277e-09
8.305218e-10
-1.3692743e-12
-6.7411144e-10
8.9881419e-10
4.418204e-10
-6.7444489e-10
8.9736707e-10
-4.0293416e-10
1.0767503e-09
8.2652215e-10
-2.2365449e-09
2.2922598e-09
6.6308538e-10
-2.2251186e-09
4.4493993e-10
-1.027072e-09
1.5675581e-09
-2.5700913e-09
7.3270751e-10
-1.1743151e-09
-2.916775e-10
4.1348321e-09
1.0194314e-09
-7.9298908e-10
1.5400008e-09
1.2394545e-09
-3.2739655e-12
-1.5171329e-09
1.3522598e-09
7.8757325e-10
-1.5187167e-09
1.3501457e-09
2.8674735e-10
1.5426933e-09
1.2334901e-09
-1.5866411e-09
4.1736329e-09
1.0115695e-09
-2.6277868e-09
7.2739443e-10
-1.1720388e-09
4.2524244e-10
-2.2570137e-09
9.8801527e-10
-7.2749709e-10
-9.2845421e-10
5.4834841e-09
1.3129418e-09
-9.7633064e-10
1.5333486e-09
1.5758108e-09
-5.3967111e-12
-2.568086e-09
1.7252406e-09
9.6673316e-10
-2.57106e-09
1.722633e-09
9.2093044e-10
1.533578e-09
1.5684118e-09
-4.394702e-10
5.5288315e-09
1.3030338e-09
-2.3294792e-09
9.8096065e-10
-7.2726243e-10
-6.9228101e-10
-1.414558e-09
1.2192481e-09
-1.417968e-10
-1.4168441e-09
6.1911078e-09
1.5774792e-09
-9.8686504e-10
1.0349301e-09
1.8793369e-09
-6.9975866e-12
-3.6453137e-09
2.0574918e-09
9.7381579e-10
-3.6494637e-09
2.0545359e-09
1.4075024e-09
1.0309321e-09
1.8709124e-09
6.8484039e-10
6.2339145e-09
1.5662041e-09
-1.4894725e-09
1.2100207e-09
-1.4722726e-10
-1.7502798e-09
-2.0839163e-10
1.4269608e-09
5.486037e-10
-1.7626541e-09
6.1763016e-09
1.8174977e-09
-8.7645053e-10
7.1597398e-11
2.1525268e-09
-8.1621474e-12
-4.619848e-09
2.3501877e-09
8.6099502e-10
-4.6251038e-09
2.3470058e-09
1.7530523e-09
6.1169555e-11
2.1434194e-09
1.7490202e-09
6.2099581e-09
1.8050675e-09
-2.7673927e-10
1.415755e-09
5.4020573e-10
-2.4493825e-09
1.0680588e-09
1.6083621e-09
1.1723168e-09
-1.7790046e-09
5.471456e-09
2.0364325e-09
-6.0372627e-10
-1.1816897e-09
2.4045782e-09
-8.6819469e-12
-5.3185306e-09
2.6180799e-09
5.8690687e-10
-5.3245227e-09
2.6147613e-09
1.7678028e-09
-1.1982421e-09
2.395067e-09
2.450258e-09
5.4922041e-09
2.0231134e-09
1.0099454e-09
1.5954167e-09
1.1621259e-09
-2.7679813e-09
1.7641841e-09
1.5134316e-09
2.3177287e-09
-1.2630784e-09
2.2322082e-09
3.9284167e-09
9.7443862e-11
2.615006e-09
-2.6173464e-09
-9.7279217e-12
2.8329496e-09
-5.3081335e-09
-1.1797605e-10
2.8295804e-09
-5.3132154e-09
1.2488279e-09
2.6053346e-09
-2.6406512e-09
2.7669056e-09
2.2181191e-09
3.9353158e-09
1.7497403e-09
1.5009689e-09
2.2700521e-09
5.2104172e-10
-1.062239e-09
1.3561806e-10
5.3959315e-10
6.5196409e-11
4.5664933e-10
2.2210197e-10
-2.0963517e-10
2.4421354e-10
3.1955636e-10
-6.0722063e-13
-2.2080276e-10
3.224803e-10
2.0827132e-10
-2.2055606e-10
3.2182008e-10
-6.5893601e-11
2.4341226e-10
3.1818624e-10
-5.2990061e-10
4.6532753e-10
2.1935707e-10
-1.0747585e-09
1.3355076e-10
5.4438658e-10
2.2894518e-09
-2.2896945e-09
4.4033907e-10
-1.0540499e-09
3.9556264e-10
2.3609728e-09
6.5821613e-10
-4.7735022e-10
1.0855904e-09
8.6205779e-10
-2.0113696e-12
-7.2214713e-10
9.2481972e-10
4.7412968e-10
-7.2247489e-10
9.2314486e-10
-4.0253319e-10
1.0885777e-09
8.5801958e-10
-2.3093346e-09
2.3839432e-09
6.5127114e-10
-2.3299399e-09
4.3703568e-10
-1.0462489e-09
1.6216468e-09
-2.6806533e-09
7.212148e-10
-1.2191954e-09
-3.1608927e-10
4.3009166e-09
1.0172237e-09
-8.4046999e-10
1.5628485e-09
1.2865772e-09
-4.2055771e-12
-1.6133334e-09
1.4071817e-09
8.3341551e-10
-1.6147923e-09