/*--------------------------------*- C++ -*----------------------------------*\
  =========                 |
  \\      /  F ield         | OpenFOAM: The Open Source CFD Toolbox
   \\    /   O peration     | Website:  https://openfoam.org
    \\  /    A nd           | Version:  13
     \\/     M anipulation  |
\*---------------------------------------------------------------------------*/
FoamFile
{
    format      ascii;
    class       surfaceScalarField;
    location    "0.12";
    object      phi;
}
// * * * * * * * * * * * * * * * * * * * * * * * * * * * * * * * * * * * * * //

dimensions      [0 3 -1 0 0 0 0];

internalField   nonuniform List<scalar> 
150720
(
1.5796117e-11
2.6737298e-09
9.0461866e-10
-2.5110567e-17
-1.6705836e-11
2.6365794e-09
9.9006715e-10
-1.8128391e-11
2.6409641e-09
9.5460305e-10
7.6387064e-15
2.6422966e-09
9.3371197e-10
1.8143199e-11
2.6422958e-09
9.3371316e-10
1.6718141e-11
2.6409626e-09
9.5460702e-10
-1.5789271e-11
2.6365779e-09
9.9007407e-10
2.6737286e-09
9.046263e-10
4.268448e-16
-4.4057388e-11
4.1579448e-09
2.0199458e-09
-1.0591668e-16
-1.00456e-10
3.9965455e-09
2.1565357e-09
-6.8552966e-11
3.9874694e-09
2.0816948e-09
1.7535015e-14
3.9934759e-09
2.0403534e-09
6.8586506e-11
3.9934741e-09
2.0403561e-09
1.0048403e-10
3.9874647e-09
2.0817036e-09
4.4074997e-11
3.9965388e-09
2.1565514e-09
4.1579394e-09
2.0199645e-09
2.8536896e-15
-7.9269284e-11
4.8570973e-09
2.7061789e-09
-2.0251349e-16
-1.4511814e-10
4.5599188e-09
2.8285375e-09
-9.4719297e-11
4.5307379e-09
2.7323947e-09
2.3788577e-14
4.5421871e-09
2.6826077e-09
9.4764809e-11
4.5421841e-09
2.682611e-09
1.4515669e-10
4.5307294e-09
2.7324055e-09
7.9293801e-11
4.5599063e-09
2.8285574e-09
4.8570846e-09
2.7062045e-09
6.1193077e-15
-9.5028674e-11
5.0307878e-09
3.1133591e-09
-3.2305309e-16
-1.6009999e-10
4.6245404e-09
3.1924704e-09
-1.0347515e-10
4.5793898e-09
3.0867439e-09
2.7645784e-14
4.595335e-09
3.0353699e-09
1.0352813e-10
4.5953309e-09
3.0353733e-09
1.6014552e-10
4.5793777e-09
3.086755e-09
9.5058861e-11
4.6245225e-09
3.1924911e-09
5.0307663e-09
3.1133879e-09
9.828121e-15
-9.9575195e-11
4.8689916e-09
3.3193512e-09
-4.5096689e-16
-1.5880481e-10
4.3938604e-09
3.3478889e-09
-1.0284092e-10
4.3405271e-09
3.2408781e-09
2.9952077e-14
4.3585985e-09
3.191845e-09
1.0289847e-10
4.3585936e-09
3.1918481e-09
1.58855e-10
4.3405122e-09
3.2408883e-09
9.961015e-11
4.3938383e-09
3.3479084e-09
4.8689616e-09
3.3193805e-09
1.376365e-14
-9.5735074e-11
4.5087589e-09
3.3799063e-09
-5.7164756e-16
-1.4817422e-10
4.0076596e-09
3.362578e-09
-9.69246e-11
3.953303e-09
3.2599125e-09
3.1284422e-14
3.9703421e-09
3.2152385e-09
9.6984879e-11
3.9703368e-09
3.2152413e-09
1.482276e-10
3.9532863e-09
3.2599212e-09
9.577415e-11
4.0076347e-09
3.362595e-09
4.5087219e-09
3.379934e-09
1.7807965e-14
-8.5462408e-11
4.0469708e-09
3.337148e-09
-6.7850372e-16
-1.3254821e-10
3.5603781e-09
3.2842642e-09
-8.8085066e-11
3.5091976e-09
3.189539e-09
3.2015498e-14
3.5220421e-09
3.1500797e-09
8.8146971e-11
3.5220365e-09
3.1500821e-09
1.3260389e-10
3.5091799e-09
3.1895462e-09
8.5505165e-11
3.5603519e-09
3.2842784e-09
4.046929e-09
3.337173e-09
2.1907194e-14
-6.8666569e-11
3.2344638e-09
-7.8114288e-16
3.5370297e-09
-1.161397e-10
3.1554982e-09
3.1082084e-09
-7.8492476e-11
3.0697841e-09
3.0576217e-09
3.2321865e-14
3.03547e-09
3.0639026e-09
7.8555363e-11
3.035472e-09
3.0638968e-09
1.1619738e-10
3.0697899e-09
3.0576034e-09
6.8712376e-11
3.1555095e-09
3.1081828e-09
3.2344855e-09
2.5564858e-14
3.5369857e-09
4.4696083e-11
4.4460644e-10
4.1531617e-10
-3.7621738e-17
3.7512246e-11
4.643081e-10
5.3294288e-10
1.8764327e-11
4.4542743e-10
5.2792353e-10
1.7404614e-14
4.4050698e-10
5.1195192e-10
-1.8731111e-11
4.4050584e-10
5.1195583e-10
-3.7485085e-11
4.4542419e-10
5.2793679e-10
-4.4681739e-11
4.643061e-10
5.3296462e-10
4.4460722e-10
4.1533664e-10
6.9524971e-16
8.9930585e-11
1.166814e-09
1.2078075e-09
9.5716286e-17
7.2021384e-11
1.1856285e-09
1.4531246e-09
3.3730522e-11
1.1376623e-09
1.4277508e-09
4.4900078e-14
1.1268467e-09
1.3876993e-09
-3.3645001e-11
1.1268432e-09
1.3877086e-09
-7.1950771e-11
1.1376514e-09
1.4277822e-09
-8.9891031e-11
1.1856194e-09
1.4531784e-09
1.1668104e-09
1.2078634e-09
6.9769407e-15
1.0847844e-10
1.8784731e-09
1.886041e-09
3.399124e-16
8.1732047e-11
1.8658814e-09
2.1750309e-09
3.5805342e-11
1.7889336e-09
2.1270501e-09
6.5300543e-14
1.7738085e-09
2.0713859e-09
-3.5680772e-11
1.7738022e-09
2.0713981e-09
-8.1627651e-11
1.7889123e-09
2.1270914e-09
-1.0841651e-10
1.8658612e-09
2.1751044e-09
1.8784586e-09
1.8861232e-09
1.6619792e-14
1.1049888e-10
2.4597466e-09
2.4215861e-09
6.8377078e-16
7.7582743e-11
2.3948655e-09
2.6964024e-09
3.1331296e-11
2.2938487e-09
2.6280803e-09
7.9867092e-14
2.2763723e-09
2.5640576e-09
-3.1178563e-11
2.2763633e-09
2.5640707e-09
-7.7452876e-11
2.2938167e-09
2.6281249e-09
-1.1041735e-10
2.3948319e-09
2.6964849e-09
2.4597161e-09
2.4216848e-09
2.8244877e-14
1.0322196e-10
2.8636262e-09
2.8122485e-09
1.1207074e-15
6.7478118e-11
2.7395284e-09
3.0389699e-09
2.4507044e-11
2.6227784e-09
2.9549195e-09
8.9969106e-14
2.6045257e-09
2.8881086e-09
-2.4334474e-11
2.6045144e-09
2.8881214e-09
-6.7329313e-11
2.6227367e-09
2.954963e-09
-1.0312335e-10
2.7394813e-09
3.0390531e-09
2.8635771e-09
2.8123551e-09
4.0954574e-14
9.1439904e-11
3.0867578e-09
3.0653332e-09
1.6410066e-15
5.5642618e-11
2.9083405e-09
3.229563e-09
1.7467912e-11
2.785509e-09
3.1353567e-09
9.6814909e-14
2.7674031e-09
3.0697322e-09
-1.728154e-11
2.7673902e-09
3.0697439e-09
-5.5479791e-11
2.7854597e-09
3.1353964e-09
-9.1326397e-11
2.9082817e-09
3.2296412e-09
3.0866902e-09
3.0654404e-09
5.4178183e-14
7.7935884e-11
3.1512466e-09
3.194721e-09
2.2276808e-15
4.3896273e-11
2.929946e-09
3.2966984e-09
1.110339e-11
2.8101748e-09
3.1976661e-09
1.0134987e-13
2.792647e-09
3.1358378e-09
-1.090737e-11
2.792633e-09
3.135848e-09
-4.3723042e-11
2.8101209e-09
3.1977007e-09
-7.7809466e-11
2.9298783e-09
3.2967681e-09
3.1511628e-09
3.1948234e-09
6.7559632e-14
6.4534209e-11
3.2102256e-09
2.8314348e-15
3.1109478e-09
3.3184657e-11
3.2626448e-09
2.8541489e-09
5.7706339e-12
3.1634091e-09
2.7439638e-09
1.0420674e-13
3.1070909e-09
2.7266926e-09
-5.5664685e-12
3.1070995e-09
2.7266762e-09
-3.3003461e-11
3.1634382e-09
2.7439096e-09
-6.4395819e-11
3.2627044e-09
2.8540758e-09
3.2103197e-09
7.9963535e-14
3.1108528e-09
3.6533964e-11
9.2971823e-11
2.858105e-10
-1.1755294e-16
3.7749213e-11
1.2303822e-10
4.0868941e-10
2.0433694e-11
1.1773659e-10
4.2750246e-10
2.7835423e-14
1.1310533e-10
4.1925244e-10
-2.038066e-11
1.1310318e-10
4.1926114e-10
-3.7707043e-11
1.1773218e-10
4.27531e-10
-3.6513123e-11
1.2303693e-10
4.0873377e-10
9.2973878e-11
2.8584928e-10
3.631091e-16
8.4099838e-11
3.6772093e-10
8.4895813e-10
4.64486e-16
8.8825068e-11
4.3618009e-10
1.1352574e-09
4.7834912e-11
4.1574867e-10
1.1707289e-09
7.4607684e-14
4.0049252e-10
1.1480724e-09
-4.7693167e-11
4.0048615e-10
1.1480934e-09
-8.8710731e-11
4.157336e-10
1.1707983e-09
-8.4039062e-11
4.3617335e-10
1.1353703e-09
3.677225e-10
8.4906595e-10
9.7374459e-15
1.1516593e-10
7.6024902e-10
1.3783454e-09
1.6025024e-15
1.2033036e-10
8.5285478e-10
1.7531918e-09
6.40379e-11
8.1081312e-10
1.7882781e-09
1.1167236e-13
7.8235515e-10
1.7534495e-09
-6.3825499e-11
7.8234372e-10
1.7534777e-09
-1.2015615e-10
8.1078322e-10
1.7883724e-09
-1.1506713e-10
8.528377e-10
1.7533511e-09
7.6024404e-10
1.3785084e-09
2.6035246e-14
1.3188147e-10
1.1954628e-09
1.8544876e-09
3.2279591e-15
1.3472768e-10
1.288618e-09
2.257793e-09
7.0777201e-11
1.2215638e-09
2.2812801e-09
1.3986051e-13
1.1801429e-09
2.2369072e-09
-7.051056e-11
1.1801263e-09
2.2369384e-09
-1.3450547e-10
1.2215171e-09
2.281386e-09
-1.3174747e-10
1.2885858e-09
2.2579788e-09
1.195444e-09
1.8546905e-09
4.6885703e-14
1.3765737e-10
1.6125811e-09
2.2574676e-09
5.2186602e-15
1.365892e-10
1.6834614e-09
2.6451947e-09
7.0793003e-11
1.5909055e-09
2.6513739e-09
1.6058399e-13
1.5384645e-09
2.6004194e-09
-7.0485989e-11
1.5384435e-09
2.6004508e-09
-1.3632938e-10
1.5908423e-09
2.6514813e-09
-1.3749156e-10
1.6834107e-09
2.6453903e-09
1.6125421e-09
2.257695e-09
7.0430361e-14
1.3475491e-10
1.9696965e-09
2.5734555e-09
7.4543112e-15
1.2945759e-10
2.0005731e-09
2.9177486e-09
6.6267209e-11
1.8843405e-09
2.905112e-09
1.753646e-13
1.8237734e-09
2.8505152e-09
-6.5930924e-11
1.8237489e-09
2.8505448e-09
-1.2916878e-10
1.8842628e-09
2.9052138e-09
-1.3456075e-10
2.000503e-09
2.917941e-09
1.969633e-09
2.5736934e-09
9.5310817e-14
1.2444659e-10
2.2446625e-09
2.7952985e-09
9.8279101e-15
1.1602014e-10
2.2221027e-09
3.0835952e-09
5.8874461e-11
2.0859615e-09
3.0531908e-09
1.8557604e-13
2.0207116e-09
2.9975884e-09
-5.8517512e-11
2.0206849e-09
2.9976151e-09
-1.1570925e-10
2.0858726e-09
3.0532827e-09
-1.242276e-10
2.2220146e-09
3.0837748e-09
2.2445731e-09
2.795535e-09
1.2060858e-13
1.091419e-10
2.9238689e-09
1.2160629e-14
2.4218651e-09
9.9458845e-11
3.1568869e-09
2.3375437e-09
5.0403806e-11
3.1103115e-09
2.1881141e-09
1.9223458e-13
3.0559313e-09
2.1220828e-09
-5.0032684e-11
3.0559545e-09
2.1220548e-09
-9.9131689e-11
3.1103912e-09
2.1880186e-09
-1.0889994e-10
3.1570473e-09
2.3374399e-09
2.9240946e-09
1.4431347e-13
2.421754e-09
1.7270568e-11
4.0990254e-11
2.2755001e-10
-3.3625274e-16
2.1900065e-11
5.6574728e-11
3.4748518e-10
1.3119192e-11
5.403437e-11
3.8224896e-10
4.0198029e-14
4.9126571e-11
3.8320486e-10
-1.3043201e-11
4.9123916e-11
3.8322062e-10
-2.1841589e-11
5.4030451e-11
3.8229893e-10
-1.724354e-11
5.6576765e-11
3.4755895e-10
4.0995644e-11
2.2761095e-10
-8.5685347e-16
4.7967392e-11
1.539401e-10
6.8804032e-10
5.6079902e-16
6.0253691e-11
2.0198262e-10
9.7756325e-10
3.5841111e-11
1.9288513e-10
1.0562907e-09
1.0947365e-13
1.770017e-10
1.0559289e-09
-3.5634626e-11
1.7699385e-10
1.0559675e-09
-6.0091557e-11
1.9287078e-10
1.0564149e-09
-4.7885486e-11
2.0198607e-10
9.7775489e-10
1.5395151e-10
6.8821351e-10
1.1083317e-14
7.3342465e-11
3.3140391e-10
1.1275366e-09
2.5086406e-15
9.0709651e-11
4.1434879e-10
1.5234585e-09
5.3643025e-11
3.9414609e-10
1.6240838e-09
1.6613433e-13
3.6410956e-10
1.6198186e-09
-5.3329177e-11
3.6409544e-10
1.6198714e-09
-9.0458306e-11
3.9411612e-10
1.6242562e-09
-7.3205719e-11
4.1434986e-10
1.5237347e-09
3.3141669e-10
1.1278036e-09
3.3916609e-14
9.3197338e-11
5.5922158e-10
1.5334671e-09
5.4754421e-15
1.1264836e-10
6.685752e-10
1.9841156e-09
6.6184876e-11
6.3246338e-10
2.0894263e-09
2.1071369e-13
5.8739042e-10
2.0796005e-09
-6.5785693e-11
5.8736989e-10
2.0796604e-09
-1.1232283e-10
6.3241457e-10
2.0896246e-09
-9.3007781e-11
6.6856808e-10
1.9844455e-09
5.5922827e-10
1.5338064e-09
6.4787291e-14
1.0713491e-10
8.1491448e-10
1.8946306e-09
9.2193307e-15
1.2613743e-10
9.3557354e-10
2.3591938e-09
7.3659669e-11
8.797308e-10
2.4565843e-09
2.4459539e-13
8.2070725e-10
2.4405177e-09
-7.3194777e-11
8.206809e-10
2.4405792e-09
-1.2575178e-10
8.7966204e-10
2.4567908e-09
-1.0689618e-10
9.3555231e-10
2.3595504e-09
8.1490677e-10
1.8950195e-09
1.0076838e-13
1.1490973e-10
1.0729265e-09
2.2005202e-09
1.34756e-14
1.3165934e-10
1.1873082e-09
2.6492644e-09
7.6572138e-11
1.1096157e-09
2.7303143e-09
2.6949483e-13
1.0393236e-09
2.7082015e-09
-7.6058132e-11
1.0392925e-09
2.7082608e-09
-1.3122602e-10
1.109528e-09
2.7305157e-09
-1.1462635e-10
1.1872684e-09
2.6496253e-09
1.0728971e-09
2.2009373e-09
1.3948022e-13
1.1635712e-10
1.3093824e-09
2.4424676e-09
1.7996073e-14
1.3020979e-10
1.3999183e-09
2.8571324e-09
7.5693286e-11
1.3006666e-09
2.9166564e-09
2.8713032e-13
1.2229662e-09
2.889352e-09
-7.5143716e-11
1.2229319e-09
2.8894066e-09
-1.2973936e-10
1.300563e-09
2.9168433e-09
-1.1603418e-10
1.3998582e-09
2.8574798e-09
1.3093258e-09
2.442893e-09
1.7914932e-13
1.1194491e-10
2.6140739e-09
2.2401052e-14
1.50721e-09
1.2347805e-10
2.9883664e-09
1.5569056e-09
7.2050424e-11
3.0229079e-09
1.4394978e-09
2.9887591e-13
2.9917725e-09
1.3588765e-09
-7.1476002e-11
2.9918211e-09
1.3588402e-09
-1.2297962e-10
3.0230747e-09
1.4393832e-09
-1.1158546e-10
2.9886867e-09
1.5568247e-09
2.6144911e-09
2.1645288e-13
1.5071275e-09
1.0712617e-11
2.1278527e-11
1.9555946e-10
-6.0412182e-16
1.3870751e-11
3.3676968e-11
3.1065008e-10
8.4816802e-12
3.238828e-11
3.5524974e-10
5.5931822e-14
2.7692758e-11
3.6393785e-10
-8.3770201e-12
2.7690027e-11
3.6396354e-10
-1.3792437e-11
3.2385566e-11
3.5532878e-10
-1.0678285e-11
3.3682577e-11
3.1076222e-10
2.1286703e-11
1.9564893e-10
-2.9768332e-15
2.9212034e-11
8.6539089e-11
5.9356709e-10
6.3258666e-16
3.8862195e-11
1.2289817e-10
8.7869189e-10
2.4216608e-11
1.1735353e-10
9.8597103e-10
1.5307395e-13
1.021112e-10
1.005574e-09
-2.3930223e-11
1.0210298e-10
1.0056379e-09
-3.8642376e-11
1.1734207e-10
9.8617057e-10
-2.9105158e-11
1.2291286e-10
8.7898739e-10
8.6557717e-11
5.9382501e-10
1.2326083e-14
4.5290848e-11
1.906415e-10
9.7813994e-10
3.4089091e-15
6.0417501e-11
2.5372525e-10
1.3775047e-09
3.797887e-11
2.4069552e-10
1.5231804e-09
2.3341142e-13
2.1193421e-10
1.547741e-09
-3.7541026e-11
2.1191917e-10
1.5478296e-09
-6.0073646e-11
2.4066944e-10
1.5234615e-09
-4.5109424e-11
2.5374724e-10
1.3779361e-09
1.9066728e-10
9.7854214e-10
4.2493022e-14
5.9093708e-11
3.2568294e-10
1.3393242e-09
7.767166e-15
7.8157437e-11
4.1212951e-10
1.8066476e-09
4.9322964e-11
3.8825387e-10
1.9707024e-09
2.9746521e-13
3.4514023e-10
1.9954199e-09
-4.8763015e-11
3.4511805e-10
1.995522e-09
-7.7708585e-11
3.8820877e-10
1.9710309e-09
-5.8838809e-11
4.1215308e-10
1.8071699e-09
3.2570883e-10
1.3398411e-09
8.4887165e-14
7.0488849e-11
4.8183892e-10
1.6679724e-09
1.3332699e-14
9.1833476e-11
5.8383545e-10
2.1661432e-09
5.8039688e-11
5.4601869e-10
2.3326133e-09
3.4683447e-13
4.8942539e-10
2.3539254e-09
-5.7384322e-11
4.8939651e-10
2.3540319e-09
-9.1298179e-11
5.4595219e-10
2.3329612e-09
-7.0164326e-11
5.8385322e-10
2.1667164e-09
4.8185623e-10
1.6685724e-09
1.3541034e-13
7.9074693e-11
6.4734446e-10
1.9559203e-09
1.9686e-14
1.011772e-10
7.5413953e-10
2.4568578e-09
6.4023809e-11
7.0006922e-10
2.6134172e-09
3.8358546e-13
6.3229918e-10
2.6289679e-09
-6.3296154e-11
6.3226469e-10
2.6290723e-09
-1.0057246e-10
6.9998126e-10
2.6137629e-09
-7.8686189e-11
7.5414451e-10
2.4574477e-09
6.473445e-10
1.9565723e-09
1.9054359e-13
8.4340702e-11
8.0924469e-10
2.1962002e-09
2.642257e-14
1.0623013e-10
9.0842735e-10
2.6809552e-09
6.7377803e-11
8.3738509e-10
2.8181928e-09
4.0987271e-13
7.6188654e-10
2.8267326e-09
-6.659723e-11
7.6184797e-10
2.8268304e-09
-1.055708e-10
8.3727777e-10
2.8185204e-09
-8.3895166e-11
9.084149e-10
2.6815337e-09
8.0921975e-10
2.1968751e-09
2.4749373e-13
8.59737e-11
2.3833682e-09
3.2923408e-14
9.5394379e-10
1.073836e-10
2.8423885e-09
1.0329954e-09
6.8377064e-11
2.9526184e-09
9.4668112e-10
4.2747981e-13
2.9539351e-09
8.6767352e-10
-6.7559234e-11
2.9540237e-09
8.6763209e-10
-1.0668281e-10
2.952917e-09
9.4655906e-10
-8.5475824e-11
2.8429333e-09
1.0329613e-09
2.3840404e-09
3.0127745e-13
9.5389329e-10
6.2748137e-12
1.3022069e-11
1.762635e-10
-9.2042789e-16
8.248978e-12
2.1794717e-11
2.8688119e-10
5.0968657e-12
2.107731e-11
3.3732454e-10
7.6761332e-14
1.7132079e-11
3.5182587e-10
-4.9549372e-12
1.7130016e-11
3.5186522e-10
-8.1454835e-12
2.1076722e-11
3.374426e-10
-6.2314983e-12
2.1804436e-11
2.8704379e-10
1.3032632e-11
1.7639032e-10
-5.5216597e-15
1.7418609e-11
5.2208773e-11
5.3696077e-10
9.9904145e-16
2.3919435e-11
7.9247682e-11
8.1473809e-10
1.5358573e-11
7.6179127e-11
9.3943007e-10
2.1034056e-13
6.3408316e-11
9.7444603e-10
-1.4968349e-11
6.3401878e-11
9.7454471e-10
-2.3626017e-11
7.617418e-11
9.3973077e-10
-1.7280565e-11
7.9276588e-11
8.1516978e-10
5.2234058e-11
5.3732889e-10
1.4118006e-14
2.7325922e-11
1.1542859e-10
8.8758898e-10
5.2152481e-15
3.8136554e-11
1.6391011e-10
1.2820317e-09
2.5027528e-11
1.5640136e-10
1.4560672e-09
3.2108802e-13
1.323111e-10
1.5035447e-09
-2.4429223e-11
1.3229885e-10
1.503683e-09
-3.7674637e-11
1.5638642e-10
1.4564946e-09
-2.7088406e-11
1.6395995e-10
1.2826665e-09
1.1546721e-10
8.881667e-10
5.387421e-14
3.6221455e-11
1.9883733e-10
1.2196823e-09
1.177097e-14
5.0717847e-11
2.6733348e-10
1.6887278e-09
3.3740881e-11
2.5300213e-10
1.8910786e-09
4.0959885e-13
2.1684726e-10
1.9442151e-09
-3.2974176e-11
2.1682852e-10
1.9443761e-09
-5.0111889e-11
2.5297162e-10
1.8915834e-09
-3.5884251e-11
2.673993e-10
1.6895029e-09
1.9888308e-10
1.2204298e-09
1.1119399e-13
4.4123606e-11
2.9704029e-10
1.5256258e-09
2.0039244e-14
6.1512209e-11
3.8087892e-10
2.0352092e-09
4.127991e-11
3.5742609e-10
2.2484216e-09
4.7791458e-13
3.0986239e-10
2.3017122e-09
-4.0381251e-11
3.0983718e-10
2.3018824e-09
-6.0786826e-11
3.5737578e-10
2.2489626e-09
-4.3690834e-11
3.8095196e-10
2.0360678e-09
2.9708427e-10
1.5265e-09
1.8040828e-13
5.0856435e-11
4.0345259e-10
1.7986222e-09
2.9341095e-14
7.0275144e-11
4.9584842e-10
2.3224695e-09
4.7447446e-11
4.6141095e-10
2.53226e-09
5.2873781e-13
4.0425144e-10
2.5814975e-09
-4.6448758e-11
4.0422044e-10
2.5816666e-09
-6.9453486e-11
4.6133882e-10
2.5328046e-09
-5.033526e-11
4.9591889e-10
2.3233625e-09
4.0348505e-10
1.7995797e-09
2.5652375e-13
5.6091473e-11
5.1071906e-10
2.0328032e-09
3.9032972e-14
7.6859975e-11
6.0360998e-10
2.5524251e-09
5.2132395e-11
5.5728592e-10
2.7470454e-09
5.6493661e-13
4.9326387e-10
2.7892876e-09
-5.1060685e-11
4.932283e-10
2.7894482e-09
-7.5962684e-11
5.5719237e-10
2.7475688e-09
-5.5491353e-11
6.0366989e-10
2.5533114e-09
5.1073027e-10
2.033803e-09
3.3545346e-13
5.9402368e-11
2.2233079e-09
4.8137737e-14
6.1132889e-10
8.1185797e-11
2.7282102e-09
6.9600494e-10
5.5281818e-11
2.8974527e-09
6.3835565e-10
5.8893422e-13
2.9310309e-09
5.7086098e-10
-5.4159023e-11
2.9311783e-09
5.7082162e-10
-8.0231262e-11
2.8979374e-09
6.3824423e-10
-5.8730077e-11
2.7290562e-09
6.9604572e-10
2.2243134e-09
4.1012896e-13
6.113171e-10
3.9647333e-12
8.0709658e-12
1.6422917e-10
-1.3739281e-15
5.0852361e-12
1.4554528e-11
2.7120616e-10
3.1012762e-12
1.4359873e-11
3.2494863e-10
1.0556755e-13
1.1361236e-11
3.4346034e-10
-2.9085053e-12
1.1360859e-11
3.4351843e-10
-4.9476718e-12
1.4362303e-11
3.2511946e-10
-3.9093485e-12
1.4569232e-11
2.7143624e-10
8.0843377e-12
1.6440546e-10
-8.8279837e-15
1.0884417e-11
3.2918876e-11
5.0122647e-10
1.9681302e-15
1.4934112e-11
5.3050581e-11
7.7219234e-10
9.7022752e-12
5.1847499e-11
9.0717428e-10
2.8923552e-13
4.2109149e-11
9.5311115e-10
-9.1699727e-12
4.2106962e-11
9.5325781e-10
-1.4540966e-11
5.18519e-11
9.0761217e-10
-1.0704539e-11
5.309601e-11
7.7280657e-10
3.2950577e-11
5.0174124e-10
1.6874892e-14
1.7027597e-11
7.3373177e-11
8.3009806e-10
9.0248526e-15
2.4114073e-11
1.0992279e-10
1.218073e-09
1.6245167e-11
1.0641601e-10
1.4093676e-09
4.413893e-13
8.8004602e-11
1.473453e-09
-1.5427582e-11
8.799896e-11
1.47366e-09
-2.3492229e-11
1.0641737e-10
1.4099938e-09
-1.6714915e-11
1.1000455e-10
1.2189806e-09
7.3422723e-11
8.3090962e-10
7.0015321e-14
2.2626145e-11
1.2714235e-10
1.1432672e-09
1.9698331e-14
3.258439e-11
1.7967675e-10
1.6090156e-09
2.2487302e-11
1.7228444e-10
1.8353073e-09
5.6273003e-13
1.446018e-10
1.9095424e-09
-2.1438952e-11
1.4459147e-10
1.9097853e-09
-3.1765886e-11
1.7227588e-10
1.8360518e-09
-2.2178789e-11
1.7979086e-10
1.6101295e-09
1.2720363e-10
1.1443221e-09
1.4803526e-13
2.7784846e-11
1.9102296e-10
1.4339275e-09
3.2869437e-14
4.0312817e-11
2.5682477e-10
1.9455332e-09
2.828197e-11
2.4394639e-10
2.1887905e-09
6.5595554e-13
2.074623e-10
2.2664778e-09
-2.7053304e-11
2.0744656e-10
2.2667366e-09
-3.9330778e-11
2.4392139e-10
2.1895946e-09
-2.720733e-11
2.569611e-10
1.9467741e-09
1.9108666e-10
1.4351666e-09
2.4305474e-13
3.2469502e-11
2.6110576e-10
1.6960226e-09
4.7374927e-14
4.7168424e-11
3.3596062e-10
2.2286348e-09
3.347032e-11
3.1621228e-10
2.4736922e-09
7.247336e-13
2.7227019e-10
2.5494352e-09
-3.2105836e-11
2.7224895e-10
2.5496947e-09
-4.605466e-11
3.1616631e-10
2.4745085e-09
-3.1771061e-11
3.3610646e-10
2.2299336e-09
2.6116113e-10
1.6973861e-09
3.4801647e-13
3.6512167e-11
3.3305237e-10
1.9242823e-09
6.2138209e-14
5.3028131e-11
4.1182078e-10
2.460049e-09
3.7915195e-11
3.8436418e-10
2.6940065e-09
7.7301943e-13
3.3499426e-10
2.7637057e-09
-3.6452734e-11
3.3496812e-10
2.7639547e-09
-5.1811468e-11
3.8429533e-10
2.6947985e-09
-3.570568e-11
4.1196464e-10
2.4613474e-09
3.33088e-10
1.9257135e-09
4.5702245e-13
3.9571282e-11
2.1142333e-09
7.552901e-14
4.0248008e-10
5.7726187e-11
2.6424552e-09
4.7942081e-10
4.1478364e-11
2.853771e-09
4.4429366e-10
8.0422777e-13
2.9146685e-09
3.9203076e-10
-3.99487e-11
2.9148996e-09
3.9199973e-10
-5.6432506e-11
2.8545125e-09
4.4420404e-10
-3.8666635e-11
2.6437053e-09
4.795497e-10
2.1156806e-09
5.6013153e-13
4.0249405e-10
2.6097398e-12
5.2167815e-12
1.5640466e-10
-2.0203015e-15
3.2851929e-12
9.9510538e-12
2.6057965e-10
1.9862725e-12
1.0138002e-11
3.1610954e-10
1.456736e-13
8.0318242e-12
3.3726911e-10
-1.7234875e-12
8.0341863e-12
3.3735341e-10
-3.1013765e-12
1.0143856e-11
3.1635349e-10
-2.5383973e-12
9.9707716e-12
2.6090248e-10
5.2323896e-12
1.566481e-10
-1.3430146e-14
7.101813e-12
2.1461402e-11
4.7787585e-10
4.1850139e-15
9.6818364e-12
3.6432387e-11
7.4313098e-10
6.3515113e-12
3.66714e-11
8.839712e-10
3.9909175e-13
2.981894e-11
9.3727645e-10
-5.6226617e-12
2.9823546e-11
9.3749021e-10
-9.1527096e-12
3.6686934e-11
8.8459914e-10
-6.8662231e-12
3.6494622e-11
7.4399623e-10
2.1496689e-11
4.7859008e-10
2.0633742e-14
1.1047518e-11
4.8177632e-11
7.9231749e-10
1.6811311e-14
1.5696983e-11
7.5797919e-11
1.174058e-09
1.0795173e-11
7.5413669e-11
1.3755272e-09
6.0885708e-13
6.2422114e-11
1.4510361e-09
-9.6737474e-12
6.2426972e-11
1.4513391e-09
-1.4856486e-11
7.5434841e-11
1.3764286e-09
-1.0634394e-11
7.5912443e-11
1.1753407e-09
4.8232054e-11
7.9344752e-10
9.2340362e-14
1.4637807e-11
8.4053199e-11
1.0927186e-09
3.529314e-14
2.1355516e-11
1.2442858e-10
1.5536672e-09
1.5168242e-11
1.2239586e-10
1.7945123e-09
7.7574484e-13
1.0279781e-10
1.8835592e-09
-1.3729446e-11
1.0280086e-10
1.8839165e-09
-2.0245821e-11
1.2241421e-10
1.7955888e-09
-1.4042869e-11
1.2459243e-10
1.5552466e-09
8.4119974e-11
1.0941921e-09
1.9920811e-13
1.7987183e-11
1.271423e-10
1.3727936e-09
5.758144e-14
2.6686798e-11
1.7870492e-10
1.8825572e-09
1.9390457e-11
1.7387387e-10
2.1446088e-09
9.0330673e-13
1.4795669e-10
2.239806e-09
-1.7704429e-11
1.479561e-10
2.2401891e-09
-2.5352594e-11
1.7388005e-10
2.1457769e-09
-1.7215257e-11
1.7890654e-10
1.8843226e-09
1.272112e-10
1.3745298e-09
3.3029263e-13
2.1119551e-11
1.7501258e-10
1.6269511e-09
8.162881e-14
3.1641779e-11
2.3507425e-10
2.1617432e-09
2.3361799e-11
2.2635347e-10
2.4294926e-09
9.9652877e-13
1.9503153e-10
2.5247257e-09
-2.1490843e-11
1.9502605e-10
2.5251122e-09
-3.0126798e-11
2.2633979e-10
2.4306847e-09
-2.0182452e-11
2.3529791e-10
2.1635979e-09
1.7507181e-10
1.6288674e-09
4.7566545e-13
2.3958832e-11
2.2493587e-10
1.8502946e-09
1.0558673e-13
3.6153829e-11
2.9008888e-10
2.3928394e-09
2.6979365e-11
2.7667668e-10
2.6528577e-09
1.0608837e-12
2.4136533e-10
2.7432904e-09
-2.4976759e-11
2.4135458e-10
2.7436638e-09
-3.4498291e-11
2.7663839e-10
2.6540214e-09
-2.2873873e-11
2.9031967e-10
2.3947012e-09
2.2497258e-10
1.8523119e-09
6.2688567e-13
2.6260053e-11
2.0386071e-09
1.266299e-13
2.7417542e-10
4.0093512e-11
2.5782718e-09
3.404388e-10
3.0118761e-11
2.8183538e-09
3.2206864e-10
1.1012108e-12
2.9004892e-09
2.8456225e-10
-2.8027966e-11
2.9008383e-09
2.8454512e-10
-3.8333865e-11
2.8194507e-09
3.2200607e-10
-2.5041431e-11
2.5800733e-09
3.4065929e-10
2.0406535e-09
7.6999246e-13
2.7418825e-10
1.8382776e-12
3.5421388e-12
1.5102699e-10
-2.7412163e-15
2.3193852e-12
7.0554034e-12
2.5304313e-10
1.4261675e-12
7.5100545e-12
3.0949271e-10
2.0174659e-13
6.1282963e-12
3.3236524e-10
-1.0660138e-12
6.1340818e-12
3.3248708e-10
-2.0726518e-12
7.5191709e-12
3.0984096e-10
-1.7461129e-12
7.0786551e-12
2.5349729e-10
3.5579005e-12
1.5136406e-10
-1.9979181e-14
4.9481595e-12
1.4673115e-11
4.6178736e-10
9.3502786e-15
6.7548416e-12
2.5953048e-11
7.2242665e-10
4.5284881e-12
2.7189374e-11
8.6651823e-10
5.5275666e-13
2.2688324e-11
9.2469215e-10
-3.5262213e-12
2.2701258e-11
9.2500201e-10
-6.040266e-12
2.7215055e-11
8.6741729e-10
-4.6393806e-12
2.6026312e-11
7.2364769e-10
1.4702037e-11
4.6278113e-10
2.5430647e-14
7.6296286e-12
3.3108831e-11
7.6621895e-10
3.3189367e-14
1.0874458e-11
5.4217632e-11
1.1425486e-09
7.6698538e-12
5.5998148e-11
1.349923e-09
8.4319323e-13
4.7438435e-11
1.4331127e-09
-6.1254245e-12
4.7455909e-11
1.4335531e-09
-9.7351103e-12
5.603659e-11
1.3512168e-09
-7.0841637e-12
5.4353427e-11
1.1443627e-09
3.3146873e-11
7.6779596e-10
1.2255408e-13
1.0029276e-11
5.8053638e-11
1.0576777e-09
6.6817404e-14
1.4734588e-11
8.9380857e-11
1.5137987e-09
1.0769139e-11
9.107965e-11
1.7633963e-09
1.0738729e-12
7.811371e-11
1.8625792e-09
-8.7863522e-12
7.8132511e-11
1.8631002e-09
-1.3226152e-11
9.112026e-11
1.7649449e-09
-9.2394351e-12
8.9576951e-11
1.5160363e-09
5.8091473e-11
1.0597388e-09
2.6927751e-13
1.2249602e-11
8.8275875e-11
1.3302154e-09
1.063786e-13
1.8394907e-11
1.2896309e-10
1.8368297e-09
1.3796763e-11
1.2974861e-10
2.110538e-09
1.2494694e-12
1.1252447e-10
2.2179426e-09
-1.1473181e-11
1.1254132e-10
2.2185029e-09
-1.6577641e-11
1.2977886e-10
2.1122228e-09
-1.1220305e-11
1.29207e-10
1.8393353e-09
8.8302023e-11
1.3326485e-09
4.5044099e-13
1.4334257e-11
1.2219931e-10
1.5785452e-09
1.4817991e-13
2.1857109e-11
1.7051696e-10
2.1126665e-09
1.6704158e-11
1.6949997e-10
2.3948942e-09
1.3767564e-12
1.4859035e-10
2.5039872e-09
-1.4127044e-11
1.4860258e-10
2.5045547e-09
-1.9790927e-11
1.6950893e-10
2.3966185e-09
-1.3080368e-11
1.70791e-10
2.1153033e-09
1.2220181e-10
1.5812351e-09
6.5217317e-13
1.6255274e-11
1.5802589e-10
1.7980238e-09
1.8898277e-13
2.510153e-11
2.116458e-10
2.3428643e-09
1.9432192e-11
2.0805679e-10
2.6199702e-09
1.4632917e-12
1.8438662e-10
2.725463e-09
-1.66766e-11
1.8439265e-10
2.7260137e-09
-2.2842256e-11
2.0803702e-10
2.621659e-09
-1.4799648e-11
2.1193318e-10
2.3455165e-09
1.579921e-10
1.8008595e-09
8.6252195e-13
1.7841132e-11
1.9846218e-09
2.2375726e-13
1.939463e-10
2.8049573e-11
2.5297096e-09
2.4999963e-10
2.189471e-11
2.7891744e-09
2.4339105e-10
1.5159115e-12
2.8870895e-09
2.1816513e-10
-1.9022144e-11
2.8876065e-09
2.1816248e-10
-2.5648187e-11
2.7907721e-09
2.4334164e-10
-1.6203445e-11
2.5322815e-09
2.5028022e-10
1.9875021e-09
1.0619494e-12
1.9387811e-10
1.3849645e-12
2.5586985e-12
1.4708563e-10
-2.3074943e-15
1.814788e-12
5.2091946e-12
2.4740411e-10
1.1847549e-12
5.8172898e-12
3.0430545e-10
2.8039131e-13
4.9719773e-12
3.2829762e-10
-6.8830119e-13
4.9808296e-12
3.2847494e-10
-1.4830518e-12
5.8275118e-12
3.0480819e-10
-1.2667574e-12
5.2289524e-12
2.4805204e-10
2.5664529e-12
1.4756027e-10
-2.9419266e-14
3.6999596e-12
1.0616884e-11
4.500064e-10
2.2805547e-14
5.1718398e-12
1.9256429e-11
7.0690753e-10
3.6386568e-12
2.1079204e-11
8.527895e-10
7.6833531e-13
1.8330574e-11
9.1420388e-10
-2.2549004e-12
1.8350691e-11
9.1465538e-10
-4.2058091e-12
2.1107085e-11
8.5408863e-10
-3.2983314e-12
1.9317823e-11
7.0865133e-10
1.0608538e-11
4.5140955e-10
3.1155446e-14
5.6567956e-12
2.3999642e-11
7.4710874e-10
7.065398e-14
8.2007021e-12
4.038144e-11
1.1188797e-09
6.0341215e-12
4.3467359e-11
1.3297014e-09
1.1720167e-12
3.822709e-11
1.4180783e-09
-3.8997529e-12
3.8254774e-11
1.4187208e-09
-6.6551584e-12
4.3506912e-11
1.3315724e-09
-4.9425413e-12
4.0495965e-11
1.1214719e-09
2.396065e-11
7.4933863e-10
1.6267446e-13
7.3622439e-12
4.2178165e-11
1.0320018e-09
1.3508061e-13
1.0967767e-11
6.6814874e-11
1.4837597e-09
8.334235e-12
7.081157e-11
1.7386856e-09
1.4922422e-12
6.2834658e-11
1.8448136e-09
-5.5926016e-12
6.286516e-11
1.8455746e-09
-8.9164454e-12
7.0849017e-11
1.7409267e-09
-6.3228595e-12
6.6980705e-11
1.486958e-09
4.2093813e-11
1.0349187e-09
3.6406557e-13
8.900078e-12
6.4315682e-11
1.2989692e-09
2.0860179e-13
1.3543417e-11
9.6769371e-11
1.8022319e-09
1.0543599e-11
1.0107308e-10
2.0832763e-09
1.7351867e-12
9.04146e-11
2.199171e-09
-7.3304753e-12
9.0443002e-11
2.1999907e-09
-1.1067544e-11
1.010928e-10
2.0857161e-09
-7.5400611e-12
9.697525e-11
1.8058132e-09
6.41741e-11
1.3024138e-09
6.1436431e-13
1.031624e-11
8.9327886e-11
1.5429324e-09
2.8434917e-13
1.5957449e-11
1.2846894e-10
2.0753257e-09
1.2651674e-11
1.3234665e-10
2.3669264e-09
1.9100817e-12
1.1933224e-10
2.4858111e-09
-9.0892783e-12
1.1935443e-10
2.4866426e-09
-1.3138857e-11
1.3233551e-10
2.3694254e-09
-8.6537926e-12
1.2869907e-10
2.0790944e-09
8.9120618e-11
1.5467405e-09
8.9427708e-13
1.160616e-11
1.1596535e-10
1.7594236e-09
3.5649906e-13
1.822189e-11
1.6015725e-10
2.3045602e-09
1.4636678e-11
1.6288927e-10
2.5930128e-09
2.0273795e-12
1.4808183e-10
2.7093227e-09
-1.0830687e-11
1.4809521e-10
2.710131e-09
-1.5137635e-11
1.6283881e-10
2.5954626e-09
-9.670712e-12
1.6039792e-10
2.3083507e-09
1.156853e-10
1.7634371e-09
1.1870006e-12
1.2646818e-11
1.9445487e-09
4.1587132e-13
1.4297575e-10
2.0299177e-11
2.4921364e-09
1.9007801e-10
1.6450201e-11
2.7647828e-09
1.9112988e-10
2.0967388e-12
2.8742321e-09
1.7529269e-10
-1.2487605e-11
2.8749924e-09
1.7529362e-10
-1.7019982e-11
2.7671034e-09
1.9103993e-10
-1.0464865e-11
2.4958127e-09
1.9031155e-10
1.9486232e-09
1.4652729e-12
1.4263398e-10
1.1072334e-12
1.9989233e-12
1.4397882e-10
6.4946294e-16
1.5602788e-12
4.0245115e-12
2.4292655e-10
1.1255779e-12
4.6829322e-12
3.0005721e-10
3.9246717e-13
4.2063618e-12
3.2482437e-10
-4.3477754e-13
4.2154812e-12
3.250867e-10
-1.1116826e-12
4.6849119e-12
3.0080018e-10
-9.5640947e-13
4.0173448e-12
2.4387942e-10
1.9742043e-12
1.4467324e-10
-4.3594855e-14
2.9496254e-12
8.2478288e-12
4.4074969e-10
5.8183069e-14
4.3467955e-12
1.4939633e-11
6.9459524e-10
3.3125393e-12
1.6980745e-11
8.4152594e-10
1.07528e-12
1.5441502e-11
9.0520599e-10
-1.3878517e-12
1.5460178e-11
9.0587381e-10
-3.03519e-12
1.6977216e-11
8.4344366e-10
-2.4326363e-12
1.4906828e-11
6.9715929e-10
8.1102682e-12
4.4280443e-10
3.6413191e-14
4.4810848e-12
1.8581618e-11
7.3213432e-10
1.595452e-13
6.7753177e-12
3.1414368e-11
1.1001107e-09
5.3354565e-12
3.5047924e-11
1.3130741e-09
1.6397525e-12
3.2109696e-11
1.4051058e-09
-2.3666729e-12
3.2131704e-11
1.4060557e-09
-4.6729621e-12
3.5022487e-11
1.3158334e-09
-3.5576799e-12
3.1360195e-11
1.1039032e-09
1.8285927e-11
7.3539214e-10
2.1314367e-13
5.7762347e-12
3.2586493e-11
1.0119316e-09
2.8911966e-13
8.909786e-12
5.2101551e-11
1.459939e-09
7.1840147e-12
5.7157587e-11
1.7183017e-09
2.0866414e-12
5.2659432e-11
1.8293613e-09
-3.3709195e-12
5.2678249e-11
1.8304856e-09