/*--------------------------------*- C++ -*----------------------------------*\
  =========                 |
  \\      /  F ield         | OpenFOAM: The Open Source CFD Toolbox
   \\    /   O peration     | Website:  https://openfoam.org
    \\  /    A nd           | Version:  13
     \\/     M anipulation  |
\*---------------------------------------------------------------------------*/
FoamFile
{
    format      ascii;
    class       volScalarField;
    location    "0.12";
    object      rho;
}
// * * * * * * * * * * * * * * * * * * * * * * * * * * * * * * * * * * * * * //

dimensions      [1 -3 0 0 0 0 0];

internalField   nonuniform List<scalar> 
51200
(
1
1
1
1
1
1
1
1
1
1
1
1
1
1
1
1
1
1
1
1
1
1
1
1
1
1
1
1
1
1
1
1
1
1
1
1
1
1
1
1
1
1
1
1
1
1
1
1
1
1
1
1
1
1
1
1
1
1
1
1
1
1
1
1
1
1
1
1
1
1
1
1
1
1
1
1
1
1
1
1
1
1
1
1
1
1
1
1
1
1
1
1
1
1
1
1
1
1
1
1
1
1
1
1
1
1
1
1
1
1
1
1
1
1
1
1
1
1
1
1
1
1
1
1
1
1
1
1
1
1
1
1
1
1
1
1
1
1
1
1
1
1
1
1
1
1
1
1
1
1
1
1
1
1
1
1
1
1
1
1
1
1
1
1
1
1
1
1
1
1
1
1
1
1
1
1
1
1
1
1
1
1
1
1
1
1
1
1
1
1
1
1
1
1
1
1
1
1
1
1
1
1
1
1
1
1
1
1
1
1
1
1
1
1
1
1
1
1
1
1
1
1
1
1
1
1
1
1
1
1
1
1
1
1
1
1
1
1
1
1
1
1
1
1
1
1
1
1
1
1
1
1
1
1
1
1
1
1
1
1
1
1
1
1
1
1
1
1
1
1
1
1
1
1
1
1
1
1
1
1
1
1
1
1
1
1
1
1
1
1
1
1
1
1
1
1
1
1
1
1
1
1
1
1
1
1
1
1
1
1
1
1
1
1
1
1
1
1
1
1
1
1
1
1
1
1
1
1
1
1
1
1
1
1
1
1
1
1
1
1
1
1
1
1
1
1
1
1
1
1
1
1
1
1
1
1
1
1
1
1
1
1
1
1
1
1
1
1
1
1
1
1
1
1
1
1
1
1
1
1
1
1
1
1
1
1
1
1
1
1
1
1
1
1
1
1
1
1
1
1
1
1
1
1
1
1
1
1
1
1
1
1
1
1
1
1
1
1
1
1
1
1
1
1
1
1
1
1
1
1
1
1
1
1
1
1
1
1
1
1
1
1
1
1
1
1
1
1
1
1
1
1
1
1
1
1
1
1
1
1
1
1
1
1
1
1
1
1
1
1
1
1
1
1
1
1
1
1
1
1
1
1
1
1
1
1
1
1
1
1
1
1
1
1
1
1
1
1
1
1
1
1
1
1
1
1
1
1
1
1
1
1
1
1
1
1
1
1
1
1
1
1
1
1
1
1
1
1
1
1
1
1
1
1
1
1
1
1
1
1
1
1
1
1
1
1
1
1
1
1
1
1
1
1
1
1
1
1
1
1
1
1
1
1
1
1
1
1
1
1
1
1
1
1
1
1
1
1
1
1
1
1
1
1
1
1
1
1
1
1
1
1
1
1
1
1
1
1
1
1
1
1
1
1
1
1
1
1
1
1
1
1
1
1
1
1
1
1
1
1
1
1
1
1
1
1
1
1
1
1
1
1
1
1
1
1
1
1
1
1
1
1
1
1
1
1
1
1.0000002
1
1
1
1
1
1
1
1
1
1
1
1
1
1
1
1
1
1
1
1
1
1
1
1
1
1
1
1
1
1
1
1
1
1
1
1
1
1
1
1
1
1
1
1
1
1
1
1
1
1
1
1
1
1
1
1
1
1
1
1
1
1.0000001
1.0000024
1.0000011
1
1
1
1
1
1
1
1
1
1
1
1
1
1
1
1
1
1
1
1
1
1
1
1
1
1
1
1
1
1
1
1
1
1
1
1
1
1
1
1
1
1
1
1
1
1
1
1
1
1
1
1
1
1
1
1
1
1
1
1
1
1
1.0001685
1
1
1
1
1
1
1
1.0000003
1
1
1
1
1
1
1
1
1
1
1
1
1
1
1
1
1
1
1
1
1
1
1
1
1
1
1
1
1
1
1
1
1
1
1
1
1
1
1
1
1
1
1
1
1
1
1
1
1
1.0001994
1
1
1
1.000003
1
1.0003052
1.0001741
1.0000008
1
1
1
1
1
1.0000022
1
1
1
1
1
1
1
1
1
1
1
1
1
1
1
1
1
1
1
1
1
1
1
1
1
1
1
1
1
1
1
1
1
1
1
1
1
1
1
1
1
1
1
1
1
1
1
1
1
1.0002403
1.0001021
1.0000009
1
1.0000118
1.0028202
1.0002999
1.0005403
1.0000005
1.0000003
1
1
1.0000001
1.0000083
1.0000015
1.0000001
1
1
1
1
1
1
1
1
1
1
1
1
1
1
1
1
1
1
1
1
1
1
1
1
1
1
1
1
1
1
1
1
1
1
1
1
1
1
1
1
1
1
1
1
1
1
1
1
1.0003692
1.0001693
1.0000007
1.0000215
1.0000001
1.0046832
1.0001738
1.0005689
1.0000012
1.0000015
1
1
1.0000001
1.0001
1.0000021
1.000001
1
1
1
1
1
1
1
1
1
1
1
1
1
1
1
1
1
1
1
1
1
1
1
1
1
1
1
1
1
1
1
1
1
1
1
1
1
1
1
1
1
1
1
1
1
1
1
1
1.0110558
1.0001647
1
1.0001763
1.0017061
1.0046837
1.0000157
1.0002238
1
1.0000017
1.0000001
1.0000001
1
1.000193
1.0000038
1.0000067
1
1
1
1
1
1
1
1
1
1
1
1
1
1
1
1
1
1
1
1
1
1
1
1
1
1
1
1
1
1
1
1
1
1
1
1
1
1
1
1
1
1
1
1
1
1
1
1
1.0195702
1.0001722
1
1.00038
1.0234492
1.002592
1.0000002
1.0000002
1.0005247
1.0000124
1.0000001
1.000002
1.0005969
1.0001641
1.0000186
1.0000109
1.0000476
1
1
1
1
1
1
1
1.0000001
1
1
1
1
1
1
1
1
1
1
1
1
1
1
1
1
1
1
1
1
1
1
1
1
1
1
1
1
1
1
1
1
1
1
1
1
1
1
1
1.0114026
1.0005466
1
1.0003824
1.0324696
1.0027293
1.0002478
1.0004607
1.0044752
1.0000088
1
1.0000083
1.0027379
1.0001533
1.0000148
1.0000006
1.0005267
1.000001
1
1
1
1
1
1
1.0000007
1
1
1
1
1
1
1
1
1
1
1
1
1
1
1
1
1
1
1
1
1
1
1
1
1
1
1
1
1
1
1
1
1
1
1
1
1
1
1
1.0035653
1.0012026
1.0000106
1.0002482
1.0324699
1.0049597
1.0045119
1.0274726
1.0130816
1
1.0000001
1.0000111
1.0043096
1.0001882
1
1
1.0000008
1.0000014
1
1
1
1
1
1
1.000001
1
1
1
1
1
1
1
1
1
1
1
1
1
1
1
1
1
1
1
1
1
1
1
1
1
1
1
1
1
1
1
1
1
1
1
1
1
1
1
1.002022
1.0010037
1.0000095
1.0000375
1.0324699
1.0068421
1.0072319
1.039285
1.0113609
1
1.0000002
1.0000009
1.0112212
1.0006281
1
1.0128913
1.0000008
1.0000019
1
1
1.0000086
1
1
1
1.0000008
1
1
1
1
1
1
1
1.0000002
1
1
1
1
1
1
1
1
1
1
1
1
1
1
1
1
1
1
1
1
1
1
1
1
1
1
1
1
1
1
1
1.0018335
1.0002448
1.0000012
1.0000001
1.0322583
1.0071297
1.0121499
1.0392849
1.0037768
1
1.0000001
1.0000001
1.0247735
1.0024816
1.0000001
1.0392849
1.0000077
1.0000019
1
1.0000004
1.0026267
1.0001858
1.0000086
1.015502
1
1
1
1
1
1
1
1.0004016
1
1
1
1
1
1
1
1
1
1
1
1
1
1
1
1
1
1
1
1
1
1
1
1
1
1
1
1
1
1
1
1
1.0019314
1
1
1.0003742
1.0088745
1.002888
1.0165923
1.02147
1.0001381
1
1
1.0000118
1.0247654
1.0047922
1.0000021
1.0392669
1.0000859
1
1
1
1.0015629
1.0002783
1.0000457
1.0392509
1
1
1
1
1
1
1.0000033
1.0133744
1
1
1
1
1
1
1.0000006
1
1
1
1
1
1
1
1
1
1
1
1
1
1
1
1
1
1
1
1
1
1
1
1
1
1.0017988
1
1.000012
1.0001349
1.0006229
1.0016412
1.0133896
1.0034941
1.0000273
1.0000015
1.0000028
1.000495
1.0247554
1.0108836
1.0001827
1.0289537
1.0004091
1
1
1.0006988
1.017325
1.0024564
1.0002413
1.035918
1
1
1
1.0001554
1.0037641
1.0004171
1.0000335
1.0003881
1.0000004
1
1
1.0000035
1.0000935
1
1
1
1.0000001
1
1
1
1
1
1
1
1
1
1
1
1
1
1
1
1
1
1
1
1
1
1
1
1.0019899
1
1
1.0004231
1.0130337
1.0046875
1.0026281
1.0022938
1.0000622
1.0000106
1
1.0000551
1.0104189
1.0085273
1.0026403
1.0189804
1.0006884
1
1
1
1.0345991
1.0251751
1.0020558
1.0246617
1.0000087
1
1
1
1.0353011
1.0188396
1.0008368
1
1.0000007
1
1
1
1.0102275
1.0037
1.000047
1
1.0000001
1
1
1
1.0000063
1
1
1
1
1
1
1
1
1
1
1
1
1
1
1
1.0000007
1
1
1
1.0011439
1
1.0038272
1.07494
1.0248185
1.0010182
1.0010182
1.0021709
1.0001006
1.0000003
1.0068533
1.0618601
1.0113008
1.0041233
1.0012237
1.0125436
1.0003994
1
1.0077844
1.1058173
1.0299583
1.0180062
1.0015171
1.0154805
1
1
1.0043105
1.087274
1.0488709
1.0147075
1.0000002
1
1
1
1.0050329
1.040604
1.0202081
1.0117946
1.0001745
1.0000001
1
1.0000108
1.0031521
1.0066124
1.0005032
1.0120431
1.0022638
1.0000357
1
1
1.0008591
1.0028492
1.0000004
1.023264
1.0167116
1.0028998
1
1
1.0002908
1.0024857
1.0000007
1.0311786
1.0149578
1.0000323
1.000817
1.0028242
1.025954
1.0248893
1.0120862
1.0121197
1.0019616
1.0018254
1.000102
1.0044056
1.0207377
1.0514207
1.0040658
1.0012332
1.0012304
1.0090359
1.0003801
1.0000029
1.0073129
1.1052345
1.0126536
1.012824
1.002912
1.0151059
1.0001177
1.000003
1.050356
1.0688546
1.0431806
1.044461
1.0118467
1.0040169
1
1.0000108
1.0326077
1.0155991
1.0153846
1.0722225
1.0355874
1.0103222
1
1.0000314
1.0032686
1.0028792
1.0007355
1.075624
1.0756239
1.0124857
1
1.0000028
1.0001646
1.0001936
1.0000901
1.0554098
1.048102
1.0097727
1
1.0000703
1.0006293
1.0005871
1.0000902
1.0407967
1.0372667
1.0063153
1.0070841
1.0254745
1.0179344
1.0179591
1.0235152
1.1728373
1.018857
1.0006389
1.0142169
1.0290014
1.0161359
1.0722158
1.162917
1.5398796
1.0405281
1.0008082
1.0080389
1.1726724
1.0327729
1.0427907
1.3287944
1.508216
1.0744739
1.0041032
1.0016915
1.1721142
1.049884
1.0504195
1.087569
1.2074104
1.1082767
1.0036524
1.0103434
1.0603752
1.0426109
1.0264223
1.0877727
1.0804308
1.1044767
1.0097868
1.0089758
1.000033
1.004543
1.0075228
1.1295967
1.0430494
1.0637996
1.0098675
1.0016991
1.0000455
1.000003
1.000009
1.0152155
1.0390503
1.0179734
1.0076262
1
1.0000105
1.000279
1.0002921
1.0145788
1.0382305
1.0143319
1.0036765
1.0010235
1.0334993
1.0115792
44.11254
47.061392
1.0003542
1.0000827
1.0022568
1.0046479
1.1963017
1.0114405
47.09478
50.238466
1.0028069
1.0330878
1.001465
1.0055523
1.1967308
1.0171986
42.222342
47.056767
1.0032868
1.0743521
1
1.0001022
1.1550601
1.000983
41.054503
47.525838
1.0018531
1.0185079
1.0021455
1.0020038
1.0747226
1.000278
32.567474
42.649219
1.0011357
1.0145372
1.005764
1.000119
1.0383762
1.0000006
27.027124
40.008483
1.0008394
1.0026351
1.0025253
1.0000001
1.0000001
1.0000004
18.275414
28.71796
1.0007036
1.0005303
1.0014139
1
1
1.0000001
10.319063
29.542288
1.0008394
1.0011581
1.0009668
1.0077857
1.0039845
12.40721
166.77156
169.38215
29.801119
1.0000655
1.0013272
1.0029864
1.0017874
18.394942
168.57626
169.38215
41.515027
1.0000369
1.0000233
1.0001022
1.000185
18.959744
164.26255
169.38208
40.865564
1.0000168
1.0000041
1.0000899
1.000125
20.739229
163.08817
169.38188
48.0389
1.0000233
1.0000914
1.0001031
1.0066241
24.048177
156.13912
169.37887
46.980665
1.0000457
1.0001466
1.0109391
1.0070061
20.879051
142.80922
169.30682
47.216319
1.0001809
1.0000005
1.0431008
1.0000006
25.792497
136.11643
169.09156
38.668367
1.000161
1.0001814
1.0292242
1.3773044
12.379887
116.44255
163.92046
37.321422
1.0002674
1.0000141
1.0559469
1.0046042
44.213017
169.38215
169.38215
41.351458
1.0000595
1.0065905
1.1097714
1.0044918
56.32688
169.38215
169.38215
51.452559
1.0000224
1.0029746
1.2602374
1.0020595
54.831194
169.38208
169.38215
51.555423
1.0000082
1.0000041
1.5028144
1.003544
59.687469
169.38188
169.38208
54.173346
1.0000131
1
1.5153713
1.0285773
60.356576
169.37884
169.38194
51.814842
1.0000307
1.0006432
1.3064794
1.035259
49.691797
169.3076
169.37895
46.764562
1.0018983
1.0021152
1.2327776
1.15697
54.176807
168.20676
169.30708
58.26267
1.0178361
1.0000075
1.2530647
1.9048508
37.796705
138.11299
130.59676
85.320516
2.4494372
1.0002364
1.5667074
1.3492519
1.0736038
100.43922
45.138367
1.0000791
1.000355
1.0211074
1.566705
1.56613
1.0695376
104.41805
49.8886
1.0000521
1.0054858
1.0080468
1.1539411
1.1605824
1.0670741
105.94886
49.582848
1.000036
1.0014143
1.0005044
1.4549828
1.0592524
1.0641635
101.8922
51.931743
1.0000349
1.0000332
1.0000426
1.9385492
1.1782339
1.0670674
103.08722
53.3476
1.5931128
1.0000359
1.000911
1.0295839
1.0420625
1.1034563
100.61273
52.822747
3.9932851
1.0000601
1.0051272
1.1540379
1.2333023
1.0216616
91.947226
49.983843
5.878029
1.0019842
1.0044519
1.1902729
1.7515292
1.0489721
92.779452
48.874834
1.5841375
1.1010379
1.0017635
1.1181718
1.1186133
1.1182022
9.2857197
2.7679167
1.000077
1.0044012
1.0105446
1.3570478
1.2672455
1.2332259
9.0071995
2.1776546
1.0000549
1.0009586
1.0085731
1.1537259
1.3716387
1.3707816
7.6883347
2.1637949
1.0000392
1.0033845
1.0162009
1.1952875
1.0547468
1.2498857
6.9229762
1.9058641
1.000036
1.0002921
1.0018413
1.0287217
1.0286935
1.1776704
6.4875342
1.3912184
1.0000392
1.0002784
1.000329
1.0286884
1.0287111
1.0418442
5.1468487
1.0400674
1.0000786
1.0025428
1.001834
1.029044
1.0562848
1.0194797
2.8072491
1.0332656
1.0000615
1.0031947
1.0000248
1.0538139
1.1156588
1.073415
3.9090259
1.1042313
1.0021243
1.002673
1.0000693
1.0824399
1.1200285
1.2873851
1.1179664
1.0414223
1.0530999
1.0006002
1.0088005
1.1351491
1.1192864
1.3388467
1.1339206
1.0393301
1.005224
1.0002996
1.0019772
1.1428941
1.1662851
1.4040132
1.1865195
1.0534227
1.0005726
1.0002464
1.0034667
1.1505707
1.0893561
1.0898376
1.1634025
1.0636655
1.0005466
1.0000298
1.0051459
1.2809771
1.0912696
1.0903249
1.0533579
1.0347406
1.0005876
1.0000015
1.0004022
1.2818421
1.1385109
1.0623135
1.0463431
1.0294741
1.0000972
1.0000013
1.0000015
1.0643747
1.002879
1.0183272
1.0189206
1.0182755
1.0000086
1.0000015
1.0000174
1.0028251
1.0028032
1.0328845
1.0263865
1.0172468
1.0000013
1.0000117
1.0000086
1.8126025
1.7156673
1.4408404
1.1339554
1.1320973
1.0000599
1.001268
1.0055908
1.8126159
1.8111809
1.7684008
1.1385698
1.1448165
1.0000254
1.000922
1.0019049
1.7175431
1.8069619
1.8041813
1.1686171
1.1694186
1.0000254
1.0000584
1.0003562
1.15181
1.6533917
1.8022205
1.12668
1.1567161
1.0000254
1.0008513
1.0028746
1.1515192
1.1489759
1.7998961
1.103966
1.0650633
1.0008023
1.0009453
1.0011669
1.4888697
1.291218
1.7928151
1.1895859
1.0060792
1.0001907
1.0000013
1.0000013
1.0092695
1.7075012
1.7920489
1.3082065
1.0000013
1.0000013
1.0000036
1.0000357
1.0047608
1.2784587
1.7881091
1.1301791
1.0000013
1.0000013
1.0000152
1.0000477
1.2767604
1.1595158
1.3044498
1.1306118
1.0981937
1.0217311
1.0002346
1.0053192
1.3165364
1.0932416
1.4823688
1.3313329
1.0890061
1.0000254
1.0002337
1.0013031
1.4609041
1.1777316
1.5760655
1.3136044
1.0302418
1.0000254
1.0001258
1.0006276
1.6080698
1.2311459
1.6141373
1.3160104
1.0399108
1.0000254
1.0024329
1.0043308
1.6096265
1.1089657
1.6259413
1.3188732
1.0108419
1.0007935
1.0069978
1.0070413
1.6070449
1.3162277
1.7920489
1.3020771
1.0000103
1.0011816
1.0000013
1.0000013
1.4165939
1.4630758
1.790045
1.3169305
1.0000035
1.0008479
1.0000013
1.0000066
1.0384853
1.2460316
1.7722654
1.1592141
1.0000017
1.0000014
1.0000013
1.0000057
1.0835742
1.0086147
1.0435149
1.0369796
1.0142855
1.0428496
1.0032375
1.0014841
1.1346947
1.0257294
1.0344323
1.0469128
1.0106781
1.0119819
1.0018096
1.0006323
1.0179493
1.0139833
1.032113
1.0287602
1.0090155
1.0560579
1.0032451
1.0006287
1.0332537
1.0041736
1.0389191
1.0614778
1.0187877
1.0380261
1.0013461
1.0033639
1.4517723
1.0187946
1.051937
1.0837479
1.0110278
1.0004232
1.0033667
1.0077894
1.6047094
1.115378
1.1084731
1.2198447
1.0011044
1.0006447
1.005194
1.0060518
1.0353476
1.0792856
1.1229292
1.3174297
1.0000054
1.0008479
1.0000259
1.0000084
1.0004095
1.0522102
1.1384071
1.3174832
1.0000057
1.0002434
1.0001418
1.0000078
1.027223
1.0062688
1.0100201
1.009395
1.0062154
1.0450018
1.0085245
1.0011753
1.0160349
1.0047264
1.0172004
1.0116951
1.0036034
1.0100108
1.0059189
1.0039471
1.0097611
1.0041734
1.0124159
1.0121845
1.0029628
1.0592345
1.0112893
1.0004053
1.0041736
1.0041736
1.0254842
1.0092659
1.0054842
1.0830544
1.00066
1.0006468
1.0184335
1.0041734
1.0277394
1.0292381
1.0102234
1.0586875
1.0039062
1.0049496
1.0518668
1.0042714
1.0807687
1.0203937
1.0057792
1.0226119
1.0058658
1.0070181
1.0749441
1.0117831
1.3647638
1.0980542
1.0033273
1.0007764
1.0003592
1.0053836
1.0852251
1.014935
1.3378532
1.2642951
1.0000054
1.0000108
1.0003491
1.0023439
1.0298356
1.1482073
1.3592036
1.1770862
1.0032883
1.045001
1.0061349
1.0011753
1.0588285
1.131553
1.4782142
1.1756191
1.002466
1.0151135
1.006444
1.0064426
1.0147962
1.1072664
1.4779712
1.1376645
1.0026994
1.030617
1.0121932
1.0014403
1.0188777
1.1650472
1.4769865
1.2334097
1.0029096
1.0830602
1.0068755
1.0005801
1.0247198
1.1505651
1.4726232
1.104144
1.003388
1.0830621
1.0083462
1.0006502
1.0309614
1.138256
1.4715186
1.0761118
1.0039291
1.0361593
1.006303
1.0040651
1.0326261
1.0996405
1.4697827
1.2651033
1.0083373
1.0008297
1.0019455
1.0090422
1.0369903
1.115275
1.4687773
1.3942144
1.0000117
1.0046302
1.0003578
1.0065501
1.0108838
1.3163093
2.1451603
1.1074282
1.0015509
1.0327113
1.0032225
1.0011753
1.0540328
1.3731439
1.6490537
1.243299
1.0016156
1.0108064
1.004224
1.0064293
1.0181885
1.4659239
1.3762841
1.0506238
1.0038889
1.0081762
1.0061979
1.0052229
1.0239531
1.480294
1.4831912
1.2322616
1.0072907
1.0824666
1.0266919
1.0012033
1.0385714
1.4770442
1.3053907
1.3329401
1.0242418
1.0718207
1.0334336
1.0007466
1.0621915
1.278453
1.0597321
1.2773131
1.0187985
1.0103336
1.0023075
1.0008538
1.3843226
1.4226549
1.4036152
1.2635343
1.0178897
1.0065959
1.0152501
1.0127875
1.2594775
1.4246597
1.4682761
1.3205917
1.0118836
1.0475296
1.0145978
1.0066158
1.0002824
1.002685
2.1778485
1.0005689
1.0005672
1.014865
1.0047072
1.0072061
1.0069819
1.1409092
2.1824745
1.0507297
1.0009122
1.0040604
1.0025273
1.0048483
1.0438034
1.2413946
1.972978
1.0383444
1.004356
1.0005154
1.0028134
1.0052566
1.0376864
1.1291925
1.4777798
1.0642559
1.004668
1.0425179
1.0289598
1.00404
1.030027
1.4292977
1.0761699
1.16575
1.02102
1.0532471
1.0425806
1.002852
1.215509
1.4288838
1.0529028
1.1915611
1.0313771
1.0051479
1.0023134
1.002654
1.3804975
1.2324741
1.063598
1.0286857
1.0354625
1.0098586
1.0402281
1.0267957
1.2755776
1.1716591
1.0634279
1.0275292
1.048432
1.063474
1.0624891
1.0088851
1.0002274
1.0002348
2.0901856
1.5530144
1.0004918
1.0104598
1.0117433
1.0135269
1.0289583
1.0002395
2.1879569
1.3207288
1.0004918
1.0004998
1.0025255
1.0044245
1.0859516
1.0646484
2.1886122
1.2097227
1.0010431
1.0005094
1.0024233
1.0052341
1.0794448
1.065514
1.9509092
1.1482573
1.0039615
1.0040498
1.0135068
1.0030068
1.0287196
1.0902464
1.8737523
1.1297576
1.0051014
1.0080814
1.0212708
1.003567
1.1633592
1.1155761
1.3157883
1.0365215
1.0169837
1.0035347
1.0157978
1.0077675
1.1935148
1.0025302
1.0004495
1.0002141
1.0380171
1.0134422
1.0434835
1.0263903
1.044485
1.0011164
1.0002792
1.0000373
1.0483179
1.0479466
1.0608238
1.0152589
1.0002193
1.1718583
2.1898407
2.190282
1.0764022
1.0033932
1.0135694
1.0135689
1.0053723
1.1569082
2.1897862
2.1902892
1.0122457
1.0006618
1.0028697
1.0041464
1.0420735
1.1306531
2.1897688
2.1630101
1.0036686
1.0005156
1.0020403
1.0036477
1.022352
1.071747
2.1892421
1.867714
1.0118081
1.000762
1.0013145
1.000596
1.0090089
1.0022757
2.1885449
1.5771434
1.0148004
1.0011247
1.0066515
1.002709
1.0227184
1.0013765
2.1873164
1.2633452
1.0219532
1.0027983
1.0187039
1.0091628
1.0030687
1.0011647
1.5892443
1.0549585
1.0170959
1.0073263
1.0212251
1.0109578
1.0016731
1.0011291
1.070978
1.0008342
1.0073772
1.0100208
1.0364806
1.0160153
1.000217
1.7066907
2.1902822
2.1903233
1.3875725
1.0039878
1.0135658
1.0104738
1.000197
1.803665
2.1903021
2.1903231
1.3554734
1.001097
1.0027141
1.0037931
1.0001779
1.8310879
2.1902577
2.1903156
1.315582
1.0007876
1.0008122
1.0016185
1.0001685
1.7251248
2.1902811
2.1902978
1.237843
1.0025559
1.000156
1.0000029
1.0001599
1.6565745
2.1902436
2.1902631
1.1514551
1.002576
1.0042857
1.0019383
1.0002411
1.4887827
2.1901967
2.1736616
1.0731084
1.0017936
1.0123545
1.0040012
1.0002841
1.1905519
2.1901299
1.8593
1.0563042
1.0007587
1.0000669
1.0003538
1.0021525
1.0168838
1.8536176
1.293753
1.0100181
1.00002
1.0030408
1.0075177
1.0315688
1.8573472
2.1903233
2.1903234
1.5113796
1.0083748
1.0131937
1.0027608
1.0001779
2.1039491
2.1903232
2.1903233
1.5977473
1.0022478
1.0022882
1.0037941
1.0001685
2.0959358
2.1903225
2.1903231
1.5955351
1.0010882
1.0001118
1.0011594
1.0001599
2.1899131
2.190312
2.1903216
1.581646
1.0051755
1.0002081
1.0000042
1.0001565
2.1901718
2.1902991
2.1903093
1.5392895
1.0035863
1.0015275
1.0003514
1.0076109
2.1900254
2.1902776
2.1902757
1.3332345
1.0007911
1.0007167
1.0001562
1.0262589
2.1633593
2.1902517
2.1902127
1.2696427
1.0000152
1.0000043
1.0000097
1.034059
1.7893289
2.1902023
1.9445964
1.0852129
1.0000089
1.0000044
1.001132
1.0230516
1.5637543
2.1903234
2.1903233
1.289357
1.0088873
1.0110356
1.0008092
1.0110876
1.7588576
2.1903233
2.1903229
1.3736019
1.0043432
1.0019926
1.0026147
1.0003938
1.7240924
2.1903174
2.1903217
1.3786298
1.0004523
1.0000095
1.0013963
1.0001565
1.88403
2.1903012
2.1903125
1.4365166
1.0007878
1.0000658
1.0000026
1.0001222
1.9094377
2.1902901
2.1902766
1.4701137
1.0001019
1.0000069
1.0000025
1.0000894
1.9287057
2.1902648
2.190125
1.311938
1.0005915
1.0000028
1.0000024
1.0000934
2.000286
2.1901975
2.1901357
1.2258007
1.0001315
1.000003
1.0000024
1.0086888
1.600776
2.1897109
2.022672
1.0790085
1.0000054
1.000003
1.0000027
1.001622
1.0745924
1.3041425
1.3357872
1.0359358
1.0094053
1.007632
1.0003559
1.0131233
1.1397007
1.4560119
1.6639015
1.0592637
1.0056403
1.0029288
1.0007375
1.0001746
1.1267496
1.8416077
1.82509
1.0570965
1.0000806
1.0000095
1.0016525
1.0001222
1.1532604
2.1900374
1.9045174
1.0757533
1.0012896
1.0000212
1.0000409
1.0000894
1.1096279
2.189847
1.996905
1.0775245
1.0007331
1.0000083
1.0000024
1.0000885
1.0819107
2.1896971
2.089243
1.0360827
1.0000026
1.0000024
1.0000024
1.0000883
1.1462824
2.1037176
1.9319354
1.0715508
1.0002895
1.0000024
1.0000024
1.0000905
1.066536
2.0855671
1.6102007
1.0362041
1.0000337
1.0000027
1.0000024
1.0003301
1.000557
1.0011634
1.0012422
1.0014046
1.0089457
1.0043084
1.0000744
1.0048763
1.0005236
1.0066528
1.0352551
1.0000168
1.0050742
1.00365
1.0000635
1.0002
1.0002381
1.0486118
1.052894
1.0000097
1.000008
1.0001704
1.0010369
1.0009177
1.0071997
1.273007
1.0966983
1.0000135
1.0010509
1.0001013
1.0001821
1.0002372
1.0191702
1.3822163
1.1523872
1.0000356
1.0014287
1.0001695
1.0000024
1.0000883
1.0016307
1.4309222
1.1652971
1.000004
1.0000026
1.0000024
1.0000024
1.0000881
1.0000883
1.549558
1.2285168
1.0018634
1.0000857
1.0000024
1.0000024
1.0000882
1.0000905
1.6223492
1.112444
1.0052954
1.0000292
1.0000024
1.0000024
1.0002265
1.0005114
1.0023945
1.0012608
1.0015501
1.0041382
1.0011872
1.0000013
1.0003677
1.0001685
1.0002168
1.0000425
1.000002
1.0023508
1.0010626
1.0000006
1.0001685
1.0001625
1.0000194
1.0000099
1.000002
1.0000032
1.000187
1.0011182
1.0002459
1.000162
1.0000483
1.0000209
1.0000027
1.0002997
1.0000641
1.0004547
1.0043305
1.002783
1.00007
1.0000573
1.0000328
1.0010464
1.0002254
1.0000031
1.0058668
1.0138814
1.0168002
1.0011751
1.0000441
1.000004
1.0001354
1.0000024
1.0000881
1.0059688
1.0585226
1.0017841
1.0000094
1.0000063
1.0000159
1.0000044
1.0000881
1.0032628
1.1015638
1.0042883
1.0000078
1.0000087
1.0000024
1.0000024
1.0001929
1.0004921
1.0040216
1.0021511
1.0008
1.001027
1.0000013
1
1.0001963
1.0005354
1.0006646
1.0000435
1.000002
1.0030502
1.0011184
1.0053005
1.0171825
1.0006593
1.0000097
1.000002
1.000002
1.0000261
1.0003506
1.0042401
1.000236
1.0001607
1.0000022
1.000001
1.0000019
1.0000136
1.0000282
1.0004502
1.0019566
1.0000047
1.0000021
1.0000202
1.0000321
1.0002216
1.0000783
1.0000062
1.0140149
1.0062573
1.0000086
1.0002792
1.00024
1.0011821
1.0003135
1.0000167
1.0179218
1.0074404
1.0001597
1.0012459
1.0000087
1.0013076
1.0010399
1.0000045
1.0119309
1.0105349
1.0018439
1.0006004
1.0000058
1.0000058
1.000155
1.0000044
1.0000715
1.0000655
1.0040225
1.0016713
1.000013
1
1
1
1.0021545
1.0006373
1.0021942
1.0000473
1.000002
1.0125769
1.0122207
1.0121961
1.0308115
1.0019224
1.0000228
1.0000019
1.0000417
1.0004774
1.0015474
1.0122873
1.0254215
1.0002677
1.0000011
1.0000009
1.0000019
1.0000022
1.0000032
1.0047726
1.001576
1.0000018
1.0000008
1.0000209
1.0000078
1.0000021
1.0000056
1.0000066
1.003878
1.0001309
1.0000008
1.0000009
1.0002151
1.0008829
1.0001888
1.0000103
1.0111126
1.0024315
1.0000861
1.0022122
1.001621
1.0040005
1.0007809
1.0000521
1.0186703
1.0038777
1.0006177
1.0052904
1.0002567
1.0053172
1.0019477
1.0000025
1.0000253
1.0000151
1.0007578
1.0002563
1
1.0000002
1
1
1.0000253
1.0002257
1.0019201
1.0000525
1.0105527
1.0127442
1.0127443
1.0069237
1.026843
1.0003571
1.0002203
1.0000077
1.0010942
1.0030632
1.0097959
1.0123064
1.0530681
1.0051285
1.0000008
1.0000008
1.0000009
1.0000064
1.0005008
1.0123518
1.0532997
1.0001552
1.0000008
1.0000211
1.0000019
1.000002
1.0000021
1.0074084
1.0181748
1.0004633
1.0000007
1.0000008
1.0000043
1.0001029
1.0000496
1.000309
1.0014528
1.0001184
1.0000008
1.0011295
1.001181
1.0024327
1.0001388
1.0000102
1.0032005
1.000009
1.000706
1.0062399
1.0040135
1.0088983
1.0004311
1.0000064
1.0000547
1.000211
1.0000004
1
1
1
1
1.0000077
1.0000255
1.0000255
1.0004387
1.0000223
1.0108828
1.0124271
1.0093492
1.0005032
1.0018908
1.0008181
1.0009233
1.0000088
1.0038279
1.0094021
1.0111381
1.0072886
1.0455665
1.0168164
1.0001168
1.0000009
1.0000161
1.0005494
1.0086029
1.0123725
1.0545397
1.0439759
1.0000007
1.0000078
1.0000018
1.0000019
1.0011729
1.0124029
1.0545397
1.0107551
1.0000007
1.0000007
1.0000008
1.0000009
1.0000033
1.0095573
1.0354239
1.0000008
1.0000007
1.0000008
1.0001508
1.0000014
1.0000071
1.0009604
1.0035123
1.0000049
1.0005787
1.0047398
1.0022824
1.0071695
1.0000028
1.0000072
1.0001307
1.0013644
1.0000078
1.0000002
1
1
1
1.0000018
1.0073934
1.000026
1.0007557
1.0000014
1.0024554
1.004436
1.0009743
1.0000008
1.0002579
1.0002417
1.0017817
1.0000145
1.0039708
1.0111371
1.0111363
1.0003867
1.010799
1.0087353
1.0004231
1.0000456
1.0003391
1.0018817
1.0111381
1.0108104
1.0542123
1.0349542
1.0000657
1.0000172
1.0000011
1.0000014
1.0077016
1.0124083
1.0542939
1.0072987
1.0008622
1.0000008
1.0000008
1.0000011
1.0005666
1.0124169
1.0285772
1.000066
1.0004266
1.0000008
1.0000008
1.0000008
1.0000018
1.0085909
1.0004459
1.000009
1.0001453
1.0010569
1.0000014
1.0009617
1.0000014
1.0004472
1.0000192
1.0018225
1.0002479
1.0000001
1
1
1
1.0000008
1.0092745
1.04812
1
1
1
1.0000291
1
1.0000008
1.0724147
1.0103446
1.0017396
1.0001159
1.0016652
1.0059713
1.0069855
1.0000008
1.0766958
1.0100158
1.0066645
1.0002877
1.0002317
1.001855
1.0111266
1.004445
1.0347687
1.0154076
1.0015534
1.0002023
1.0000192
1.0000127
1.0079265
1.0124169
1.0276099
1.0109135
1.0059494
1.0000336
1.0000008
1.0000013
1.0005481
1.0124201
1.0294925
1.0000965
1.0039647
1.0000632
1.0000008
1.0000008
1.000009
1.0104646
1.0004413
1.0010764
1.0004698
1.0000014
1.0000009
1.0000008
1.0000011
1.0006423
1.0063922
1.00454
1.0013596
1
1
1.0000047
1
1
1.0840757
1.0638533
1.0020288
1
1
1
1
1.0000214
1.1201796
1.2104169
1.0005662
1.0002144
1.0000198
1.0030577
1.0019831
1.0000009
1.0839096
1.2291734
1.0128587
1.0004864
1.0013522
1.0026723
1.005451
1.0025723
1.0962879
1.0571196
1.0133767
1.0003076
1.0001246
1.0003153
1.0033818
1.0124198
1.1658872
1.0691362
1.0059646
1.0001204
1.0000008
1.0000008
1.0003389
1.0124198
1.2394406
1.0745996
1.0010958
1.0000323
1.0000008
1.0000008
1.0000128
1.0070052
1.2122157
1.0028946
1.0031081
1.000025
1.0000162
1.0000057
1.0000087
1.0000987
1.0001388
1.0046075
1.0004124
1
1
1.00011
1
1.0000003
1.0490713
1.1551751
1
1
1.0001358
1.0046816
1.0001515
1.0000433
1.0922259
1.2418091
1.0063993
1.0001464
1.0000073
1.0023388
1.0007845
1.0000738
1.0916492
1.2421797
1.0045539
1.000455
1.0013802
1.0088088
1.0088087
1.0025425
1.1292124
1.2173375
1.0280809
1.0003962
1.0000009
1.0005778
1.0033188
1.0084834
1.2439297
1.228312
1.0083515
1.000181
1.0000008
1.0000008
1.0003445
1.0084022
1.2439899
1.2436747
1.0015563
1.0000008
1.0000008
1.0000008
1.0000008
1.0016726
1.2439889
1.1632099
1.0070359
1.0027125
1.0000294
1.0000144
1.0000033
1.0000034
1.0000002
1.0002002
1.0000016
1
1
1.0004775
1.0000003
1.0000005
1.0040166
1.0414096
1.0000969
1
1.0011422
1.0072426
1.0001061
1.0000257
1.0298946
1.1929629
1.0073332
1.0000291
1.0002718
1.003132
1.0008945
1.0001066
1.0573887
1.242446
1.0049126
1.0001632
1.0003249
1.008419
1.0129357
1.0008801
1.0718446
1.2428881
1.0196569
1.0004546
1.0036822
1.0063264
1.0065829
1.0007814
1.1214615
1.2430423
1.0116534
1.0001522
1.0004685
1.0007584
1.0005316
1.0019014
1.1599634
1.2433542
1.0053345
1.0000432
1.0000008
1.0000541
1.0000882
1.0003912
1.2208608
1.2429708
1.0118393
1.0102137
1.0001109
1.0000123
1.0000033
1.0006599
1.0000002
1.000002
1.0000001
1
1
1.0000095
1
1.0000005
1
1.0009468
1.0000728
1
1.0013046
1.0072418
1.0000782
1.0000441
1.0024595
1.0402629
1.0038048
1
1.0011798
1.0024606
1.0015844
1.0000622
1.0207544
1.1138816
1.00836
1.0000978
1.0000983
1.0053812
1.0171694
1.0001402
1.0199064
1.1478608
1.0176437
1.0010602
1.0070065
1.0129022
1.012907
1.0002746
1.0118456
1.1993063
1.0206271
1.0003934
1.0076354
1.0087953
1.0003092
1.0000702
1.0110495
1.2420035
1.0000518
1.0000514
1.0006261
1.0009169
1.001161
1.0005556
1.049955
1.2266431
1.0179661
1.0068135
1.000054
1.0000078
1.0013113
1.0029114
1
1
1
1
1
1.000002
1
1
1
1.000009
1.0000055
1
1.0006087
1.0034424
1.0025891
1.0004169
1.0005137
1.0000683
1.0005278
1
1.0010481
1.0035752
1.02072
1.0013731
1.0070396
1.0039855
1.0075459
1.0003786
1.0000999
1.0014769
1.0266333
1.0000335
1.0020015
1.0106001
1.0128948
1.002246
1.0061216
1.0111352
1.0105773
1.0008075
1.0045161
1.0290254
1.0233043
1.0011577
1.0098859
1.0092412
1.0001652
1.0001711
1.0019921
1.0371465
1.012808
1.0002374
1.0059635
1.0010761
1.0024391
1.0005681
1.0000723
1.0540024
1.0285524
1.0009458
1.0004107
1.0004052
1.008402
1.0031266
1
1
1
1
1
1.0000003
1
1
1.0000166
1.0000208
1.0000017
1
1.0000372
1.0014588
1.0064087
1.000561
1.0000006
1.000011
1.0000763
1
1.0013177
1.0133636
1.0266395
1.0036339
1.0115884
1.0000155
1.0029552
1.0005437
1.0006519
1.0037595
1.0266425
1.0006949
1.0024067
1.0000527
1.0044316
1.0064527
1.0031313
1.005686
1.0103611
1.0012307
1.0011389
1.0002682
1.0127929
1.0011047
1.0098859
1.0027803
1.0001653
1.0003835
1.0005223
1.0000852
1.0228068
1.0004549
1.0098859
1.0004759
1.000766
1.0006215
1.0000698
1.0000715
1.0291605
1.000238
1.0027447
1.0012956
1.0113704
1.0020992
1
1
1
1
1
1
1.0000001
1
1.0000557
1.0000368
1.0000032
1
1
1.0001249
1.0024341
1.0001376
1.0000605
1.0000375
1.0000013
1
1.0013064
1.0128945
1.0262579
1.0019682
1.014682
1.0001018
1.000704
1.0000002
1.0045719
1.0237367
1.0266337
1.0004352
1.005541
1.0000765
1.0015406
1.0058123
1.0039899
1.0264611
1.0149607
1.000364
1.0000869
1.0000795
1.0022536
1.0000724
1.0081985
1.0004765
1.0053535
1.0003716
1.0000698
1.0000775
1.0150684
1.0000662
1.0083988
1.0004778
1.0021165
1.0005189
1.0000698
1.0000698
1.0184879
1.000064
1.0031027
1.0007995
1.0051458
1.0007593
1
1
1
1
1
1.0000002
1.0000001
1
1.0001167
1.0000354
1.0000035
1
1
1
1.000074
1.0000016
1.0014239
1.0001761
1
1
1.0002997
1.0035137
1.0096789
1.0001751
1.0139692
1.0003218
1.0003362
1.0009012
1.0047751
1.009016
1.0231011
1.0000055
1.0196833
1.0025313
1.0024212
1.0011444
1.0016869
1.0093856
1.0120059
1.0000047
1.0000796
1.0000784
1.0016562
1.0129195
1.0037532
1.0836133
1.0140918
1.0000046
1.0012036
1.0000781
1.0099853
1.0081489
1.0037737
1.0568543
1.0084596
1.0000304
1.0000698
1.0006445
1.0055117
1.0000342
1.0016126
1.0064352
1.0056923
1.0000807
1
1
1
1
1
1.0000004
1
1
1.000245
1.00003
1.0000009
1
1
1
1
1
1.0018857
1.0003068
1
1.0000069
1
1.0033394
1.0003706
1.0000101
1.0097623
1.0003077
1.000324
1.0089746
1.0062054
1.0110244
1.0021743
1.0000122
1.0388663
1.0109161
1.0050469
1.0286298
1.0069471
1.027434
1.0057943
1.0000046
1.0376237
1.008478
1.0085175
1.0962685
1.0012778
1.0989672
1.0119905
1.0000045
1.0507746
1.0478349
1.0096001
1.1001124
1.0012053
1.1052225
1.0041821
1.0000043
1.0274403
1.0165757
1.0145703
1.0339359
1.0011501
1.105482
1.0047413
1.0000042
1
1
1
1
1
1.0000007
1
1
1.0005166
1.0000122
1
1
1
1.0000031
1.0000021
1
1.0021816
1.0002964
1.0000097
1.0000105
1
1.0010322
1.000022
1.0000059
1.0038988
1.0012909
1.0000489
1.0140975
1.036035
1.0092891
1.0000041
1.0000111
1.0517617
1.0353325
1.0063568
1.088631
1.085606
1.0442221
1.0011131
1.0000923
1.0634084
1.053469
1.0129485
1.1304567
1.1063279
1.0956982
1.0051193
1.0000046
1.0634126
1.0634428
1.0095081
1.130457
1.1080406
1.1037443
1.0000408
1.0000915
1.0623093
1.0496244
1.0206256
1.1276426
1.0837812
1.1085924
1.0015863
1.0000048
1
1
1
1
1
1.0000009
1
1
1.0005209
1
1
1
1.0000002
1.0000058
1.0000034
1