/*--------------------------------*- C++ -*----------------------------------*\
  =========                 |
  \\      /  F ield         | OpenFOAM: The Open Source CFD Toolbox
   \\    /   O peration     | Website:  https://openfoam.org
    \\  /    A nd           | Version:  13
     \\/     M anipulation  |
\*---------------------------------------------------------------------------*/
FoamFile
{
    format      ascii;
    class       volScalarField;
    location    "0.12";
    object      rho;
}
// * * * * * * * * * * * * * * * * * * * * * * * * * * * * * * * * * * * * * //

dimensions      [1 -3 0 0 0 0 0];

internalField   nonuniform List<scalar> 
51200
(
900
900
900
900
900
900
900
900
900
900
900
900
900
900
900
900
900
900
900
900
900
900
900
900
900
900
900
900
900
900
900
900
900
900
900
900
900
900
900
900
900
900
900
900
900
900
900
900
900
900
900
900
900
900
900
900
900
900
900
900
900
900
900
900
900
900
900
900
900
900
900
900
900
900
900
900
900
900
900
900
900
900
900
900
900
900
900
900
900
900
900
900
900
900
900
900
900
900
900
900
900
900
900
900
900
900
900
900
900
900
900
900
900
900
900
900
900
900
900
900
900
900
900
900
900
900
900
900
900
900
900
900
900
900
900
900
900
900
900
900
900
900
900
900
900
900
900
900
900
900
900
900
900
900
900
900
900
900
900
900
900
900
900
900
900
900
900
900
900
900
900
900
900
900
900
900
900
900
900
900
900
900
900
900
900
900
900
900
900
900
900
900
900
900
900
900
900
900
900
900
900
900
900
900
900
900
900
900
900
900
900
900
900
900
900
900
900
900
900
900
900
900
900
900
900
900
900
900
900
900
900
900
900
900
900
900
900
900
900
900
900
900
900
900
900
900
900
900
900
900
900
900
900
900
900
900
900
900.00007
900.01073
900
900
900.00903
900.00005
900
900
900.00002
900.00055
900
900
900.00044
900.00001
900
900
900
900
900
900
900
900
900
900
900
900
900
900
900
900
900
900
900
900
900
900
900
900
900
900
900
900
900
900
900
900
900
900
900
900
900
900
900
900
900
900
900
900
900
900
900
900
900
900
900.00627
900.01393
900
900
900.01165
900.00517
900
900
900.00028
900.0103
900
900
900.0088
900.00025
900
900
900.00007
900.00098
900
900
900.00091
900.00012
900
900
900
900
900
900
900
900.00001
900
900
900
900
900
900
900
900
900
900
900
900
900
900
900
900
900
900
900
900
900
900
900
900
900
900
900
900
900
900
900
900
900
900
900.00473
900.01195
900
900
900.00947
900.00333
900
900
900
900.01187
900
900
900.00943
900.00001
900
900
900
900.00728
900
900
900.00695
900.00032
900
900
900
900.00063
900
900
900.0012
900.00012
900
900.00001
900
900
900
900
900
900
900
900.00004
900
900
900
900
900
900
900
900.00003
900.00004
900
900
900
900
900
900
900.00001
900.00004
900
900
900
900
900
900
900
900
900.00054
900
900
900.00038
900.00033
900.0064
900.04963
900.02495
900.00112
900
900
900.00226
900.00718
900.00515
900
900.02563
900.00431
900
900
900.00722
900.00722
900.00001
900.00353
900.02529
900.00695
900
900
900.00418
900.00717
900.00176
900.00211
900.02208
900.00228
900
900
900
900.00644
900.00641
900.00024
900.0037
900
900
900
900
900.00634
900.00263
900.00005
900
900
900
900
900
900.0059
900.00349
900
900
900
900
900
900
900.00334
900.00179
900
900
900
900
900
900
900
900.00001
900.04998
900.0012
900
900
900
900
900.00002
900.03647
900.00018
900.00038
900.00053
900
900
900.00179
900.00148
900.00845
900.0032
900.02264
900.00231
900
900
900.00141
900.00132
900.01684
900.00175
900.02303
900.00267
900
900
900
900.00584
900.00207
900.00055
900.01059
900.00032
900
900
900
900.00619
900.00413
900.00002
900
900
900
900
900
900.00615
900.00616
900
900
900
900
900
900
900.00366
900.00616
900.00004
900.00001
900.09205
900.08784
900.08848
900.0937
900.00001
900.00002
900.34784
900.00003
900.02028
900
900
900.02006
900.00002
900.11549
900.03883
900.00091
900
900
900
900.00001
900.00018
900.01623
900.00032
900.022
900
900
900
900
900.00077
900.01644
900.00011
900.01106
900.00114
900
900
900
900.0055
900.00202
900.00005
900.00028
900.0002
900
900
900
900.00611
900.00227
900.00002
900
900
900
900
900
900.00349
900.00237
900.00104
900
900
900
900
900
900.00013
900.0013
900.00014
900.00003
902.48108
900.36271
900.36091
902.50531
900.00002
900.00012
901.68441
900.00014
900.46166
900
900
900.46893
900.00012
901.64662
900.06907
900.06195
900
900
900
900
900.14006
900.02837
900.0046
900.0163
900
900
900
900
900.07022
900.00987
900.0319
900.00003
900.00002
900
900
900
900.00014
900.00972
900.02567
900.00001
900
900
900
900
900.00052
900.00131
900.03217
900.03252
900
900
900
900
900.00003
900.00221
900.0107
900.03059
900
900
900
900
900
900.00224
900.00027
900.00014
908.98538
900.3105
900.30472
909.09091
900.00012
900.0003
901.48057
900.00027
902.88744
900
900
902.95614
900.00333
902.24467
900.27995
900.0184
900
900
900
900.00001
900.17305
900.07793
900.00794
900.00728
900.00001
900
900
900.00001
900.09212
900.02298
900.09137
900.00002
900
900
900
900
900.00002
900.05594
900.05898
900.02116
900
900
900
900
900
900.00014
900.05602
900.14154
900
900
900
900
900
900.01032
900.01257
900.04325
900
900
900
900
900
900.03115
900.00036
900.00027
914.61134
900
900
914.59117
900.0003
900.00044
901.09066
900.00036
907.94796
900
900
908.04503
900.00044
901.6058
900.30572
900.02475
900.28408
900
900
900.34133
900.12383
900.28139
900.03148
900.00804
900.00006
900
900
900.00007
900.04477
900.04198
900.0983
900.00109
900
900
900
900
900.00017
900.11546
900.08501
900.17051
900.00001
900
900
900
900
900.13445
900.05138
900.15563
900.00001
900
900
900
900
900.17185
900.00559
900.01286
900
900
900
900
900.06637
900.11097
900.00045
900.00036
915.26283
900
900
915.31498
900.00044
900.00055
900.86391
900.00045
910.94519
900
900
911.04314
900.00055
900.94804
900.62648
900.14022
901.88157
900
900
902.00995
900.17811
900.71358
900.03812
900.03478
900.00034
900
900
900.00023
900.06989
900.06209
900.09638
900.00057
900.00001
900
900
900
900.00035
900.1304
900.15464
900.13376
900
900
900
900
900.00002
900.23933
900.08353
900.3065
900
900
900
900
900.11511
900.23708
900.01185
900.04182
900
900
900
900
900.19491
900.1798
900.00054
900.00045
915.38179
900
900
915.4735
900.00055
900.00063
900.82162
900.00054
911.88109
900
900
911.96186
900.00063
900.67026
900.96056
900.33216
903.88759
900
900
904.02773
900.19543
900.73444
900.06008
900.11341
900.00049
900
900
900.00097
900.04769
900.11485
900.1148
900.00145
900.00001
900
900
900
900.01644
900.19678
900.27572
900.04382
900
900
900
900
900.48283
900.33777
900.16135
900.53157
900
900
900
900
900.48423
900.20517
900.03548
900.11194
900
900
900
900
900.15868
900.06235
900.00062
900.00054
916.47752
900.64794
900.66766
916.52335
900.00063
900.0007
900.77495
900.00062
912.77585
900
900
912.82573
900.0007
900.64809
900.88132
900.47421
905.3669
900
900
905.52208
900.08013
900.93758
900.22767
900.1995
900.00167
900
900
900
900.08887
900.22713
900.18828
900.00192
900.00001
900
900
900
901.20985
900.12231
900.38479
900.00004
900
900
900
900.00001
900.73655
900.15719
900.27602
900.65566
900
900
900
900
900.1255
900.06486
900.05613
900.19892
900
900
900
900
900.01166
900.01371
900.0007
900.00062
920.07809
901.12156
901.14409
919.87945
900.0007
900.00079
900.87282
900.0007
914.98916
900
900
914.96974
900.00079
900.88901
901.1233
900.56244
906.55624
900
900
906.7847
900.0164
901.42892
900.50956
900.23612
900.00002
900
900
900
901.27572
900.421
900.33094
900.0012
900.00001
900
900
900
901.60671
900.04241
900.79919
900.00005
900
900
900
900
900.33548
900.03632
900.52732
901.07087
900
900
900
900
900.00118
900.02176
900.09678
900.38039
900.00001
900
900
900
900.00001
900.00383
900.0008
900.0007
922.86404
901.50402
901.5521
922.32822
900.00079
900.00088
901.09314
900.0008
917.62679
900
900
917.31069
900.00089
901.11606
901.52863
900.60331
908.30267
900
900
908.60501
900.5015
901.15659
900.65199
900.2472
900.00001
900
900
900.07871
901.94052
900.17191
900.51091
900.00102
900
900
900
900
901.94317
900.16403
901.21373
900.00006
900
900
900
900
900.94825
900.1455
901.06945
902.15192
900
900
900
900
900.00006
900.11034
900.28111
900.84166
900.00001
900
900
900
900
900.017
900.00098
900.0008
924.11192
902.64244
902.68431
923.76513
900.00088
900.00103
903.25265
900.00098
919.71913
900
900
919.16529
900.00103
902.45174
901.01689
900.85658
910.35916
900
900
910.364
901.36599
900.30036
900.5654
900.21793
900.1803
900
900
900.39042
901.98178
900.20453
901.6092
900.00526
900
900
900
900.00004
901.96363
900.68551
901.59728
900.51702
900
900
900
900
901.31926
900.58067
901.4064
902.94126
900
900
900
900.00001
900.02346
900.2697
900.45109
901.235
900.00001
900
900
900
900
900.01904
900.00125
900.00098
926.27095
904.91649
904.75248
926.38299
900.00103
900.00144
904.98399
900.00125
921.71987
900
900
922.64174
900.00144
908.36542
901.11611
900.64448
912.19817
900
900
912.8489
901.98203
900.28199
900.86479
900.22907
900.66216
900
900
900.80969
901.98213
900.24626
902.33392
900.97321
900
900
900
900.0002
901.76514
901.13547
901.62441
903.19455
900
900
900
900
900.35666
901.13653
901.35463
903.08848
900.00007
900
900
900
900.00117
900.45763
900.44806
900.87409
900
900
900
900
900
900.37025
900.00146
900.00125
929.04442
907.81281
907.61845
926.45641
900.00144
900.00176
903.7487
900.00146
923.73267
900
900
926.07494
900.00176
903.94481
901.26702
900.65238
913.95433
900
900
916.90867
901.96796
900.42643
900.90529
901.39565
901.4448
900
900
901.94454
901.88816
901.36013
902.36512
903.27771
900
900
900
900.00004
900.50511
902.93571
902.05593
903.38399
900
900
900
900
900.00058
900.53782
901.67959
903.05296
900.00013
900
900
900
900.00001
900.62693
900.5198
900.40017
900
900
900
900
900
900.97612
900.00161
900.00146
930.64814
911.07194
911.99049
926.50002
900.00176
900.002
903.21023
900.00161
925.45519
900
900
926.70351
900.002
906.34613
901.39557
900.40316
915.65341
900
900
919.7988
901.3113
900.83294
900.94028
903.09077
902.56054
900
900
904.07955
901.06007
901.58189
901.25569
903.65333
900.00042
900
900
900.00184
900.18753
902.94471
901.77186
903.43187
900
900
900
900
900.57894
901.29094
901.59387
901.66436
900.00011
900
900
900
901.14378
901.90224
900.72823
900.01239
900
900
900
900
901.72286
901.87492
900.0019
900.00161
931.85031
915.23202
918.93458
922.01294
900.002
900.01984
909.27951
900.0019
927.97351
900
900
926.9385
900.66034
912.27991
901.02298
900.98178
918.2258
900
900
921.28073
901.17914
900.93251
900.95666
904.05612
903.86416
900
900
906.85397
901.04933
901.02663
903.67893
903.7239
900.00097
900
900
900
902.17285
902.94052
900.7201
901.16428
900
900
900
900.00463
902.41782
901.65681
900.71054
900.06189
900.00003
900
900
900.00001
902.41476
902.06079
900.66656
900.00023
900
900
900
900
901.31139
901.30363
900.01635
900.0019
932.97175
920.57061
924.146
933.13602
901.83146
908.88404
916.90906
901.36523
930.64625
900
900
933.10836
901.09124
903.10542
901.12347
902.52471
921.72973
900
900
925.42117
904.76694
902.25547
901.694
901.48177
905.36461
900
900
910.46099
905.88217
900.7731
904.98383
900.90293
900
900
900
900
903.90638
901.51069
901.17057
904.18163
900
900
900
900.0002
901.40739
901.46295
901.05783
901.5233
900.00009
900
900
900
900.74928
901.47167
900.70066
900
900
900
900
900
900.07902
901.33076
900.01346
900.00253
934.01787
924.96821
924.58402
938.33975
902.85622
900.37413
917.95948
901.71131
930.01771
900
900
938.28187
900.9987
905.78489
901.2777
901.59692
923.39332
900
900
933.62394
900.44043
908.63989
902.06853
901.54971
908.4554
900
900
915.55684
914.0876
900.73448
905.06139
904.18777
900
900
900
900.01962
907.78531
900.71184
901.63066
904.52494
900.00253
900
900
900
900.57664
900.49022
900.98975
902.70876
900.00013
900
900
900
900.00205
900.56805
900.38993
900.00264
900
900
900
900
900
900.92139
900.00566
900.00315
936.72174
929.04841
927.81475
938.36948
900.35753
900.3608
916.85055
900.78723
928.03921
900
900
938.33071
900.3608
903.82192
903.49001
900.8062
923.03011
900
900.01913
938.31132
900.39181
908.86368
901.73474
906.85065
911.82078
900
900
922.40914
909.31813
900.77632
905.10694
906.56834
900.14816
900
900
900.82363
909.26684
901.00662
901.04027
902.6965
900
900
900
900.00005
904.89149
900.92559
900.92527
900.57155
900.00004
900
900
900
900.11742
900.18012
900.25189
900
900
900.00001
900
900
900.00035
900.15833
900.00385
900.00356
944.15717
932.52162
942.10925
938.40492
900.35752
900.35753
910.08292
900.00385
929.81905
900
900.52453
938.37806
900.35753
901.70951
910.98576
901.04607
920.74281
900
900.51309
938.30235
900.36959
904.038
901.72109
907.67187
911.3451
900
900
929.85964
905.82833
900.80608
902.01459
902.6181
900.30228
900
900
902.86871
909.18725
900.91387
902.87041
900.00202
900
900
900
900.00063
907.99283
901.07098
901.67186
900.34175
900
900
900
900.00001
900.89616
900.37825
902.11675
900.52282
900
900.00002
900
900
900.00829
900.00851
900.00552
900.00385
949.12935
936.46997
957.7553
938.28275
900.35753
900.35753
909.99375
900.12824
939.04469
900.00025
904.33482
938.29654
900.35753
902.12498
911.05414
903.68305
921.87244
900
903.38267
938.2823
900.37436
901.58712
901.71679
902.13825
909.74361
900
900
938.23343
902.9947
900.82896
902.73808
902.01148
900.18483
900
900
908.06426
909.10692
901.40864
906.04956
906.59962
900
900
900
900.00023
907.38233
901.45553
902.45409
903.55413
900.00005
900
900
900
900.71019
900.66064
902.48739
900.69744
900
900.00001
900
900
900.00135
900.00571
900.02996
900.00408
949.20528
942.78602
959.72311
937.0926
900.44863
900.50294
913.95259
900.92884
949.14185
900.00248
909.64874
919.17426
900.36783
904.34279
914.25545
902.69487
931.0398
900.02412
903.7758
937.84234
904.64324
902.64943
901.71483
903.8492
911.09043
900
900.02814
938.09657
905.37739
900.83503
903.33269
910.20455
900.26966
900
900
918.88042
908.20674
902.74079
904.23197
910.1622
900.00019
900
900
900.00025
904.24071
904.21642
902.49173
904.3035
900.0001
900
900
900
900.10725
900.98245
902.41389
900.59779
900.00001
900
900
900
900.00001
900.89737
900.02536
900.00436
949.25757
953.82719
959.75193
935.90733
902.74166
900.44407
913.84779
900.54976
949.22829
900.42114
922.28703
912.52921
900.39391
904.73596
918.7044
901.04761
948.75178
901.14896
903.00608
936.1326
903.27599
911.45696
901.71679
910.46929
919.99005
900
900.00004
936.63756
910.76236
904.1208
901.71613
910.61625
900.51715
900
900
914.26279
906.33696
902.43172
901.38667
908.48935
900
900
900
900
900.46151
907.12394
901.13999
902.13362
900.00003
900
900
900.00012
900.00016
902.58341
901.06045
900.23691
900.00001
900
900
900
900
903.11931
901.5575
913.54555
945.09052
959.79355
959.77212
942.44652
904.01248
900.44037
903.96352
900.56529
938.89324
916.45431
951.09516
917.25042
900.4213
901.52023
914.16963
901.37826
948.75812
901.97108
905.29285
941.87535
902.41109
911.69249
909.87703
909.8375
938.21795
900.00414
900.00004
938.5032
908.56278
916.1175
901.33424
906.45036
904.81887
900.00012
900
919.33014
906.68763
903.05772
901.32731
903.77146
900.00003
900
900
900.05937
901.91608
907.30985
900.66835
900.4871
900
900
900
900
900.17872
903.86593
900.81626
900.00083
900.00001
900
900
900
900.15998
903.26976
903.10365
940.07393
925.86415
959.8505
957.60121
941.24223
913.56256
900.43872
900.83203
908.05108
915.77095
953.31213
959.72335
929.677
900.43376
900.43595
906.54843
902.51239
947.33125
909.26733
914.85531
942.04356
905.54535
904.62479
918.307
902.80582
946.75681
900.1568
900.0004
938.13072
906.12835
916.1175
911.46916
917.21175
919.1569
900.00008
900.00002
919.02587
913.89002
907.23476
905.08603
905.7653
900.00002
900.00004
900.00003
900.1815
913.36389
907.97258
901.37763
900.45915
900.00006
900
900
900.00201
905.76567
907.15471
900.91349
900.00002
900.00005
900.00001
900.00005
900.0001
902.84608
904.11979
908.97277
946.82663
916.20731
959.8555
950.82929
929.17246
921.46958
901.6037
900.72984
919.58415
916.18795
959.85013
959.78554
915.19958
900.43541
900.44725
904.54067
901.94988
940.53365
930.64806
941.62608
940.7124
906.92753
903.63702
918.307
903.81252
946.45122
901.49327
903.65841
934.72629
909.91734
916.11758
918.307
918.24082
914.56176
900.00005
900.00006
916.64804
916.58749
915.13289
907.05847
912.49424
900.00003
900
900
900.0877
916.45668
906.70522
901.81346
901.70499
900.00215
900
900
900.00176
914.33339
906.76197
901.16381
900.09282
900.0001
900.00001
900.00014
900.00031
905.08095
903.77897
923.40287
948.64137
923.38656
959.86095
943.52231
926.94248
929.89525
907.36896
900.73366
926.23707
916.98739
958.33607
948.1635
909.96783
901.17247
900.45106
901.08789
901.28133
930.04393
956.55749
959.47237
941.31066
908.57691
904.21801
914.3707
908.57442
944.03296
909.83879
919.3119
933.75525
918.46606
916.03233
918.24081
918.11085
905.24366
900.00024
900.5757
912.22287
915.77001
915.97969
905.46561
917.34322
900.00017
900
900.00006
900.00034
916.16531
906.33447
901.78956
904.14969
900.00211
900
900
900.00058
911.90542
904.45405
901.35467
900.47866
900.00009
900.00002
900.00013
900.00056
903.42685
902.12839
917.59126
948.69443
945.6195
960.50074
940.84743
934.91011
935.10709
912.97698
901.39034
929.83108
923.49867
960.48093
923.85351
915.40356
909.62614
900.45509
900.46359
902.16961
929.09453
960.46321
960.39295
952.30352
908.68685
907.7799
901.67652
909.46489
928.58822
926.72244
950.36214
939.06181
919.51361
915.67246
905.99376
917.42552
900.00035
900.90768
912.81079
914.10927
907.55016
915.94138
912.65938
917.18146
900.00027
900.00031
900.00034
900.00004
906.66029
906.16145
907.08068
905.3288
900.00176
900
900.00001
900.00007
905.66068
903.62539
902.80096
900.90432
900.0001
900.00003
900.00007
900.00042
901.26702
901.65713
907.58882
948.80918
960.50074
960.50093
938.08999
942.50746
935.43648
917.83814
901.51784
938.57166
929.81942
960.50074
923.79023
921.67484
926.4511
900.73552
900.42772
906.0719
927.54126
960.48018
958.6518
952.93042
907.31
911.46147
900.37617
906.08889
928.53151
953.21442
959.95724
938.35021
914.1357
915.66519
904.87823
916.90337
900.00036
905.40954
921.5208
910.76209
901.52198
911.71763
913.69567
917.17497
900.0002
900.00004
900.00006
900.00003
900.00215
903.40451
912.68275
904.31742
900.00151
900.00002
900.0011
900.00003
900.21337
902.68801
906.77977
900.78028
900.00001
900.00003
900.00003
900.00003
900.29645
901.2077
920.03917
947.14109
960.50093
960.50093
929.2286
947.80675
940.31584
925.2068
905.68233
945.05872
933.42738
960.50093
926.20509
930.38672
932.04781
900.7823
900.83583
922.22425
939.52883
960.48306
956.10901
935.35913
907.31613
905.39515
900.41143
909.50913
933.72004
960.46197
960.09675
930.50649
907.25363
915.65424
905.62611
916.57278
901.20572
915.31571
921.44256
903.49836
901.27605
903.43314
906.33517
917.13293
900.0035
900.00024
900.00003
900.00003
900.00003
902.7386
907.36342
905.83092
900.00137
900.00003
900.00241
900.00003
900.0003
902.03204
906.79823
900.67122
900.00019
900.00003
900.00003
900.00003
900.14105
900.81026
925.08873
929.70774
957.53914
960.50093
921.72311
949.22862
944.40766
913.88133
921.26586
928.58713
953.33204
959.78602
923.73655
945.52524
928.51685
902.64028
903.97907
929.05708
960.45121
960.4625
956.05382
940.86959
907.8828
901.41992
900.13371
914.65722
951.3808
960.45201
960.35547
932.58279
903.64095
902.49124
901.61109
907.70668
909.88558
939.58361
920.18397
901.8968
902.58514
901.48268
900.60248
911.79155
900.07555
903.1619
900.00003
900.00003
900.14496
901.39244
900.88534
905.8495
900.0003
900.00026
900.00245
900.00003
900.02805
902.07777
902.11056
900.6879
900.0003
900.00003
900.00003
900.00003
900.15499
901.21094
924.65563
924.17138
957.49066
960.49912
916.56355
948.476
954.76454
913.19441
922.24762
919.34747
959.67086
945.06446
919.65708
935.39538
928.15699
905.83573
915.07256
926.31886
960.44685
960.45333
958.06111
957.96605
910.65259
901.20126
900.12302
914.94349
960.44546
960.44685
960.37163
954.8785
902.97511
900.0524
900.119
907.47026
927.74739
944.73914
917.30279
917.17773
905.4641
900.08631
900.10064
902.65675
900.62086
903.47855
900.00004
900.00053
901.4444
900.486
900.12286
904.42309
900.00023
900.0041
900.00075
900.00003
900.99399
901.05532
900.07657
900.66816
900.00004
900.00009
900.00003
900.00004
900.20153
901.16563
912.88444
929.38709
960.49629
960.49654
916.55961
921.30471
960.36948
907.7555
907.63845
919.30193
953.01075
945.69467
917.98677
919.29265
940.46629
903.56395
911.2733
919.21128
960.44213
960.44685
958.32449
950.13551
920.72742
901.32172
908.15043
919.71587
960.44255
960.44559
960.37465
960.24571
902.03505
900.04893
901.18798
907.27352
944.56113
945.46796
916.09092
953.52692
903.90565
900.04562
900.09926
900.40955
903.6595
903.76453
900.28439
914.54302
902.29086
900.28148
900.1011
900.55245
900.00137
900.00145
900.00005
900.00126
902.19672
900.7696
900.07105
900.43393
900.00001
900.00003
900.00003
900.00005
900.45538
900.44314
906.25717
936.38253
960.49621
960.49629
916.89516
911.00615
961.57105
910.4839
902.09685
925.43665
955.43147
957.94595
911.40527
911.65415
959.33364
902.07243
900.32958
919.18276
960.16932
960.44213
953.82783
941.55919
947.73296
901.91443
918.26951
931.71877
960.42899
960.44256
956.26453
959.34851
918.3403
900.04562
916.10104
907.7834
959.6427
952.93622
909.38494
959.04528
903.20935
900.04392
903.93073
900.52638
910.97571
908.57146
903.28587
948.16436
901.3892
900.12874
900.03692
900.0022
900.00135
900.00148
900.34998
909.97584
901.89599
900.41376
900.06114
900.02412
900.00002
900.00002
900.00003
900.00139
901.07347
900.047
907.08517
941.17189
960.46913
958.55786
916.73094
910.85299
961.77319
926.56305
905.98359
925.53919
960.43029
960.3855
909.54083
908.89967
961.95933
913.45536
901.73404
918.43113
960.39804
960.419
939.91496
919.32177
961.69651
904.10203
927.32865
937.9081
960.40411
960.42899
944.50571
948.95431
951.52426
904.36891
927.92768
912.81224
960.35762
960.3444
905.91937
958.62372
917.77245
900.04562
911.01679
902.1959
925.83845
918.88899
905.87145
958.07797
900.08464
900.06858
900.05027
900.00086
900.01064
900.0046
903.08008
943.85669
900.70574
900.07234
900.04756
900.00003
900.00022
900.00032
900.49214
909.86257
900.94826
900.0034
914.38064
947.01213
960.43029
952.01965
916.93792
910.2741
961.79842
930.2966
915.24197
933.3077
959.11151
960.35662
910.10715
908.50996
962.07063
939.54025
903.10536
913.55857
960.39095
960.39544
916.07794
908.76699
961.95917
912.38598
927.63677
927.33024
960.39087
960.37229
922.08663
930.49101
951.17263
915.51491
929.00615
926.00331
960.35864
960.32604
908.98177
950.56201
924.8888
909.28096
910.32978
905.73994
938.2379
933.81652
908.25175
957.23188
900.0997
900.57299
900.01819
900.01215
901.36311
901.29699
907.64015
954.15695
900.08046
900.07664
900.01977
900.0002
900.00006
900.00013
903.03507
940.04221
900.5793
900.12223
923.90911
945.02017
960.41659
953.11981
917.49809
910.55426
961.75875
926.07916
921.271
941.99963
943.10811
946.06512
910.63228
910.6008
962.15766
939.69276
902.54348
914.01096
958.96452
958.0385
907.85172
906.81285
949.35773
919.64316
906.40037
920.72083
960.35876
960.30303
905.2183
910.79233
921.9556
918.04663
929.20728
929.31244
960.32638
960.30867
906.38867
944.75337
919.03691
926.98611
914.37175
905.38107
953.70163
950.55014
916.48578
954.55525
904.60836
907.61922
900.03864
900.00066
906.77387
907.9498
907.51349
953.7419
900.09969
901.95256
900.00352
900.00056
900.00022
900.0002
903.26396
953.33096
902.50875
900.45352
919.35836
935.1175
960.39314
954.9845
918.36521
913.20912
963.12723
920.96835
906.21452
938.93697
933.10819
927.13764
904.89587
916.3613
962.22278
931.5922
901.11121
922.71626
942.74905
940.22217
904.46351
911.86448
933.07863
925.70789
900.6169
921.90204
959.99632
960.28882
903.19424
901.58306
902.85178
914.12345
915.2092
926.74993
960.24596
960.28515
903.8928
931.75215
905.61784
929.31338
912.5584
908.81304
960.06398
948.98131
911.16791
950.93348
912.05148
927.10587
901.23556
900.08924
930.04067
908.80322
906.76282
950.99798
901.30605
912.66956
900.00678
900.02186
901.17047
900.05242
902.61644
939.66491
904.66864
901.49603
928.56101
927.32236
960.33575
953.45574
920.51022
918.45417
963.24574
925.98358
918.25884
919.94527
935.76705
926.0022
900.92929
914.81396
963.23745
929.3472
907.25743
930.17631
942.39559
918.54689
900.78037
917.539
942.86066
933.39301
900.72489
921.56327
959.35637
957.84785
900.64123
900.83787
904.29155
919.74995
901.39789
916.55179
960.06424
954.5028
901.4644
909.26163
905.41161
929.34533
910.13471
913.99948
959.85021
921.7683
902.81384
931.21731
913.87944
929.32759
902.53402
901.14411
956.29874
905.12423
905.33957
934.5543
901.68832
920.44409
900.1189
900.13994
915.46143
900.50741
901.59125
912.04481
903.33313
902.74951
929.21909
929.20155
960.22271
951.22714
923.59813
924.54056
959.89855
938.24438
909.55744
911.00459
945.63101
930.27342
900.27107
908.16962
963.38069
921.23414
916.22981
920.09133
943.73309
909.17153
900.12786
913.14226
963.44342
931.92467
900.80611
917.24009
959.45677
927.74999
900.10888
900.12262
928.82715
928.38716
900.9302
905.0318
959.85023
927.53622
900.18914
900.79533
909.70178
929.33036
911.47058
912.56269
958.89286
905.45792
900.22332
905.01372
908.1682
929.34216
906.43476
902.38547
952.11805
904.13287
902.05185
905.86594
901.57714
924.81914
900.91905
900.25401
924.81685
901.08931
900.668
900.58014
900.32346
903.71517
920.88591
940.70461
960.15068
942.91924
926.5434
926.91034
960.63813
935.44043
907.09559
908.49644
955.70187
919.97207
900.00621
909.94522
962.15559
905.57278
914.77619
904.39267
926.41674
908.58753
900.17071
914.0685
964.33274
920.27984
901.48216
914.00445
955.88136
906.57499
900.04296
902.57835
957.15467
927.30789
900.95022
901.79561
958.70482
903.56233
900.03304
901.98228
927.63263
929.33511
914.20772
906.19922
958.83337
900.42372
900.24366
900.42819
909.7413
929.30677
914.61959
904.98042
955.36553
901.51805
900.08137
900.05187
901.19559
923.28932
902.25031
901.2532
942.591
900.9807
900.08489
900.01591
900.01249
904.4269
918.95845
948.45792
960.08178
939.10624
931.42445
924.10717
964.28004
940.93506
903.21065
920.31171
959.03595
903.57189
900.00573
917.73498
964.68685
908.53161
905.61616
901.16913
913.06317
903.64671
900.08088
913.92118
964.62928
904.36837
902.42802
907.02269
931.08834
902.25665
900.03232
908.30674
964.59013
917.11513
900.9473
904.40919
952.36573
901.18346
900.02001
906.21782
952.51643
919.69993
913.85174
904.44407
955.99983
900.00761
900.36125
902.95152
922.39017
922.21339
916.32838
904.70072
955.53031
900.01676
900.07934
900.5666
903.50322
921.59086
905.42319
905.16111
955.01276
900.2712
900.00024
900.03596
900.00226
905.28754
920.35232
945.63771
960.03145
938.98396
937.6868
918.35868
964.75174
960.24228
900.97701
920.62205
944.96123
900.00573
900.00573
918.10798
964.74713
947.35872
900.19984
900.14051
902.69283
900.05386
900.01706
910.19613
964.62964
908.70382
902.36976
900.93645
908.66204
900.63342
900.02933
910.28727
964.48188
907.55066
900.95022
907.58815
942.12576
900.82555
900.01064
906.8784
964.3236
907.03671
908.2637
908.93075
951.38847
900.00435
900.35244
905.08258
956.90407
909.18179
916.37312
904.71193
955.03768
900.00221
900.15138
903.17289
928.52081
915.53703
914.60909
910.09774
954.67383
900.00412
900.00023
900.85001
905.03124
906.23685
921.6109
942.65329
959.97383
938.43031
941.25393
913.99794
964.75092
964.75157
900.14659
917.10656
943.9282
900.02707
900.32133
910.95882
964.75177
964.74637
900.14048
900.13686
901.79293
900.00886
900.00068
905.91968
960.86028
951.89052
902.47928
901.72991
900.63105
900.04781
900.01724
908.04499
960.77647
920.64224
904.29985
915.57781
923.46724
900.46465
900.01016
907.08237
960.84821
908.00863
905.81555
919.23056
940.84791
900.07849
900.23787
904.60866
960.55877
904.7629
916.37707
904.74583
947.82548
900.00187
900.23179
903.06616
955.5889
909.16112
914.46735
906.67811
942.03601
900.00105
900.00022
901.28892
925.39684
907.31891
924.92525
939.65642
959.91248
937.66446
944.62062
916.12375
959.51402
964.5356
903.06069
915.82186
947.37522
900.00027
901.53337
902.04424
964.74637
964.74812
900.72212
900.133
906.93618
900.00023
900.00027
901.29458
963.87649
964.69922
903.95673
901.33566
900.00139
900.00027
900.00603
905.78975
957.29579
956.10961
910.42076
915.02812
902.53862
900.16299
900.00986
909.11419
937.95486
928.23173
906.26084
919.55847
908.97055
900.41215
900.13581
906.75033
935.4463
907.15789
916.37312
908.14481
906.96326
900.03345
900.22174
902.15945
955.18699
903.98735
914.56626
902.89195
908.45969
900.02864
900.00019
901.43426
946.9549
908.29257
920.86804
939.04551
959.84403
935.62787
946.31606
919.64114
942.55458
963.04473
913.06071
911.29621
938.40018
900.00008
903.77156
900.02209
947.8555
964.70019
910.13542
900.00225
904.45537
900.00007
900.00008
901.54539
953.17322
964.65191
907.84854
900.19924
900.01154
900.00008
900.00477
903.65386
928.90825
964.61986
912.39924
907.75565
900.00198
900.02799
900.02143
907.30386
916.42593
958.44635
911.28037
916.88888
900.00809
900.60986
900.1915
906.33489
910.61209
918.3901
913.24485
913.52406
900.02727
900.73279
900.15628
903.10623
940.99348
900.80912
912.75536
904.57314
900.12814
900.46127
900.00144
902.49373
930.74679
905.04631
921.75129
939.73004
959.78664
931.33923
946.34889
927.05443
940.8821
959.67551
912.8147
908.49061
929.86806
900.00007
908.57723
900.0176
910.83882
961.62693
911.45575
900.00043
900.88074
900.00007
900.00011
901.1355
920.77711
964.632
907.91863
900.00014
900.0086
900.00007
900.00467
900.72189
912.30652
962.62612
912.4082
900.55751
900.00019
900.01335
900.01935
901.99934
906.34954
960.62262
911.06468
909.17732
900.00075
900.66362
900.14552
902.05364
903.21233
932.24929
905.38978
913.74591
900.01691
900.96517
900.13292
903.03482
907.07196
901.52319
905.09367
911.76226
900.10819
900.95293
900.03546
902.31893
905.24482
900.68732
921.62626
940.93698
959.72665
928.33703
946.37216
929.71507
945.10939
960.67332
912.20531
908.998
927.85707
900.00007
914.7295
900.01564
903.9591
958.32191
909.7537
900.00014
900.04559
900.00005
900.00008
900.66184
915.42644
964.06255
906.60816
900.00001
900.00158
900.00006
900.00189
900.11646
917.40822
948.33613
907.56173
900.00013
900.00012
900.00657
900.00906
900.21375
903.91875
953.44619
906.12165
904.04356
900.00019
900.60351
900.06649
900.43194
905.24164
942.97731
902.45536
913.74393
900.00771