/*--------------------------------*- C++ -*----------------------------------*\
  =========                 |
  \\      /  F ield         | OpenFOAM: The Open Source CFD Toolbox
   \\    /   O peration     | Website:  https://openfoam.org
    \\  /    A nd           | Version:  13
     \\/     M anipulation  |
\*---------------------------------------------------------------------------*/
FoamFile
{
    format      ascii;
    class       volVectorField;
    location    "0.12";
    object      U;
}
// * * * * * * * * * * * * * * * * * * * * * * * * * * * * * * * * * * * * * //

dimensions      [0 1 -1 0 0 0 0];

internalField   nonuniform List<vector> 
51200
(
(0.040312469 0.01364963 0.0092423688)
(0.048495264 0.01377894 0.011679261)
(0.048713026 0.0053306595 0.011861313)
(0.047334534 -0.00010192656 0.011708394)
(0.047337929 0.00013818398 0.0117098)
(0.048728114 -0.0053536893 0.011862582)
(0.048511524 -0.013984575 0.011695819)
(0.040308126 -0.013804181 0.0091651085)
(0.10086478 0.095407645 0.03214477)
(0.11600249 0.057122454 0.041775594)
(0.1161711 0.019512464 0.039207381)
(0.11325003 0.0011752404 0.036149984)
(0.11325747 -0.0010891443 0.036155687)
(0.11620578 -0.019542494 0.039242198)
(0.11603438 -0.057456084 0.041926753)
(0.10086615 -0.096613547 0.031939983)
(0.14355145 0.10191085 0.036891312)
(0.15882006 0.047768544 0.056342109)
(0.15855181 0.016301908 0.052859133)
(0.15502195 0.00035709997 0.047153298)
(0.15503043 -0.00021767171 0.04716409)
(0.15859329 -0.01627231 0.052913404)
(0.15884918 -0.047853918 0.056596046)
(0.14357306 -0.1030833 0.036625446)
(0.17351178 0.09668873 0.047475637)
(0.1854055 0.037723022 0.073619934)
(0.18463658 0.013930443 0.064320336)
(0.18110171 0.00069002103 0.054643405)
(0.18111003 -0.00050711863 0.054659461)
(0.18467815 -0.013840066 0.064396388)
(0.18542354 -0.037570479 0.07396766)
(0.17355611 -0.097601606 0.047294629)
(0.19397406 0.081491915 0.050295114)
(0.2013686 0.025235054 0.079953231)
(0.20045092 0.010984824 0.067181203)
(0.1973041 0.0012553602 0.055460807)
(0.19731219 -0.001047975 0.055483148)
(0.20049022 -0.01083285 0.067261984)
(0.20137429 -0.024901102 0.080330986)
(0.19403895 -0.082122766 0.050197584)
(0.20763283 0.066909468 0.054928475)
(0.21025363 0.015718914 0.085373852)
(0.20914418 0.010404073 0.071684621)
(0.20645426 0.0029443971 0.060187276)
(0.206462 -0.0027261545 0.060211369)
(0.20918085 -0.010190745 0.071745886)
(0.21025001 -0.015249258 0.085737238)
(0.20771708 -0.06734557 0.05496552)
(0.21564441 0.056538823 0.062024814)
(0.21409109 0.013937967 0.088010695)
(0.21348174 0.012726599 0.068489245)
(0.21164892 0.0048057152 0.055763983)
(0.21165653 -0.0046370549 0.055792632)
(0.21351549 -0.012526289 0.06853737)
(0.2140787 -0.01342479 0.088369786)
(0.21574364 -0.056780367 0.062209657)
(0.21941251 0.045692292 0.065086308)
(0.21539885 0.01268222 0.07854247)
(0.21572271 0.026655209 0.056912287)
(0.21459401 0.013820945 0.048523066)
(0.21460092 -0.013710141 0.048545215)
(0.21575317 -0.026430683 0.056909372)
(0.21537396 -0.012128322 0.078878208)
(0.21951799 -0.045953369 0.065375724)
(0.029503464 0.0076325219 -0.0025182702)
(0.037980167 0.0092898122 0.00068202837)
(0.038413934 -0.00021719716 0.00080388521)
(0.036365712 -0.0028609414 0.00027750416)
(0.036369496 0.0029292684 0.00027906165)
(0.038429898 0.00022602406 0.00080828164)
(0.037996987 -0.0094959495 0.00070502574)
(0.029508457 -0.0078824322 -0.0025975899)
(0.081937412 0.083970706 0.001308201)
(0.09986412 0.046821471 0.016071923)
(0.10003902 0.0056010596 0.012318348)
(0.095326321 -0.0055923807 0.0070301888)
(0.095334212 0.0057603751 0.0070378767)
(0.10007584 -0.0055468717 0.012369165)
(0.099907563 -0.047118559 0.016266045)
(0.081977984 -0.085424252 0.0011151645)
(0.12405107 0.080281974 -0.004005611)
(0.14338083 0.026489944 0.026880005)
(0.14218414 -0.005361663 0.020456391)
(0.1361892 -0.0092062697 0.0099660382)
(0.13619576 0.0094564654 0.0099803342)
(0.14221889 0.005513202 0.020541985)
(0.14342097 -0.026451879 0.0272182)
(0.12411371 -0.081677482 -0.0042403521)
(0.15771168 0.067694394 0.0056525213)
(0.17419898 0.0075072191 0.048351227)
(0.17135394 -0.012864605 0.032923946)
(0.16492071 -0.010359471 0.015576728)
(0.16492407 0.010663697 0.015598848)
(0.17137724 0.013096966 0.033044779)
(0.17422092 -0.0071541043 0.048830088)
(0.1577818 -0.068752852 0.005538117)
(0.18437605 0.046026452 0.01163674)
(0.19680398 -0.012268006 0.060811501)
(0.19281773 -0.018749041 0.038705817)
(0.18643522 -0.010298476 0.016811651)
(0.18643673 0.010624275 0.016841774)
(0.19283248 0.019049219 0.038841554)
(0.19680856 0.012862171 0.061361242)
(0.18444514 -0.046706824 0.011646394)
(0.20505221 0.026462076 0.022668514)
(0.21308822 -0.026358397 0.073282051)
(0.20833259 -0.019847042 0.047183599)
(0.20221808 -0.0081520127 0.023840135)
(0.20221901 0.0084722892 0.023874381)
(0.20834246 0.020201934 0.047301508)
(0.21307791 0.027125223 0.073844396)
(0.20511442 -0.026854867 0.022865518)
(0.22031689 0.013255108 0.038046386)
(0.2248039 -0.028655142 0.082930905)
(0.22057325 -0.015148546 0.047564964)
(0.21541958 -0.0049029493 0.021871965)
(0.21542287 0.0051426878 0.021911765)
(0.2205844 0.015465501 0.047658692)
(0.22478295 0.029480991 0.083498454)
(0.22036962 -0.013371384 0.038436923)
(0.23146504 0.0022573835 0.049596221)
(0.23355413 -0.026827972 0.077110635)
(0.22943348 0.0053334126 0.036479924)
(0.22492699 0.0074036941 0.015498903)
(0.22493249 -0.0072744085 0.015531153)
(0.22944657 -0.0050359142 0.036504222)
(0.23352793 0.027685778 0.077652129)
(0.23150324 -0.0023496083 0.050128545)
(0.013090112 0.0066534714 -0.0039778608)
(0.019596354 0.0074307573 -0.00055771349)
(0.020663451 -0.0028370888 -0.00032517156)
(0.019630666 -0.0042847159 -0.00090942139)
(0.019626302 0.0043522164 -0.00090772185)
(0.02065277 0.0028485996 -0.00032054248)
(0.01958142 -0.0076386691 -0.0005339382)
(0.013087173 -0.0069015531 -0.0040634789)
(0.044136779 0.086487975 -0.0032595012)
(0.059978141 0.043495498 0.012958202)
(0.061854334 -0.0010344951 0.00870545)
(0.059252081 -0.0092083552 0.0024393224)
(0.059239594 0.0093725504 0.0024478888)
(0.061825914 0.0010977548 0.0087596635)
(0.059942052 -0.043796215 0.013162993)
(0.044142482 -0.087951223 -0.0034582722)
(0.0730277 0.077310348 -0.012909507)
(0.091736297 0.016063194 0.021496853)
(0.092708373 -0.016804135 0.013849243)
(0.08914824 -0.014605104 0.0011126494)
(0.089124092 0.014837384 0.0011282252)
(0.092644403 0.016962393 0.013940973)
(0.09165119 -0.016008924 0.021854191)
(0.073009128 -0.078687946 -0.01315345)
(0.099849094 0.058834447 -0.0052475796)
(0.1181049 -0.0090916616 0.042475534)
(0.1177645 -0.02777712 0.024124958)
(0.11373625 -0.016841962 0.0028409327)
(0.11370067 0.01710823 0.0028641323)
(0.11766189 0.028006227 0.024253844)
(0.11796127 0.0094764918 0.042987169)
(0.09978368 -0.05984886 -0.0053605476)
(0.12458264 0.031020157 -0.00070595216)
(0.14174656 -0.034124126 0.054398059)
(0.14083338 -0.035962297 0.027648159)
(0.13678118 -0.017340727 0.00019301067)
(0.13673879 0.017609997 0.00022443375)
(0.1407052 0.036247927 0.027793455)
(0.14155714 0.034762674 0.054988974)
(0.12446361 -0.031630255 -0.000684173)
(0.14697064 0.0064246149 0.010549806)
(0.16293447 -0.051723966 0.067290243)
(0.16206207 -0.03794938 0.034841292)
(0.15826375 -0.01515909 0.0048461371)
(0.15821824 0.015405124 0.0048817513)
(0.16191929 0.038278687 0.034967635)
(0.16271057 0.0525513 0.067895674)
(0.14679611 -0.0067193014 0.010771706)
(0.16659895 -0.010069423 0.027671602)
(0.18225323 -0.055021329 0.077757459)
(0.18301808 -0.032648296 0.033483149)
(0.18032623 -0.011391419 0.00031309238)
(0.18028335 0.011542137 0.00035359509)
(0.18287639 0.032925189 0.033582006)
(0.18201024 0.055904946 0.078373095)
(0.16636913 0.010068551 0.028099893)
(0.18392162 -0.023124764 0.041166782)
(0.20007185 -0.052809675 0.071302598)
(0.20192038 -0.009032979 0.020112757)
(0.19998696 0.0028380053 -0.0076889249)
(0.19994644 -0.0028178885 -0.007658766)
(0.20178129 0.00926907 0.020131831)
(0.19981999 0.053716306 0.071885479)
(0.18364195 0.023153192 0.041746264)
(0.011369027 0.0065987341 -0.0042594334)
(0.017093957 0.0062230343 -0.00059698813)
(0.018149929 -0.0048388478 -0.00040124766)
(0.017565407 -0.0053214523 -0.0010079722)
(0.017553805 0.005379123 -0.0010064769)
(0.018119423 0.0048439127 -0.00039708684)
(0.017060186 -0.0064371817 -0.00057415422)
(0.011366633 -0.0068404279 -0.0043502676)
(0.03845323 0.092743002 -0.0044935964)
(0.052621598 0.042653732 0.012755056)
(0.054766708 -0.0055920545 0.0076438676)
(0.053377776 -0.011752088 0.00072642824)
(0.053345813 0.011888678 0.0007341123)
(0.054684794 0.0056392685 0.0076969013)
(0.052529985 -0.042985131 0.012960704)
(0.038449017 -0.094191708 -0.0046973261)
(0.063149719 0.079960753 -0.01715738)
(0.07980994 0.0091951591 0.019544438)
(0.08147066 -0.025203719 0.01021914)
(0.079691087 -0.018524143 -0.0039212577)
(0.079636199 0.018698535 -0.0039082447)
(0.081319659 0.025324665 0.010305655)
(0.07962478 -0.0091836903 0.019899571)
(0.063086975 -0.081297328 -0.017436039)
(0.086090085 0.056544496 -0.011378158)
(0.10253477 -0.021339293 0.039245204)
(0.10350466 -0.038930444 0.017571973)
(0.10172125 -0.021648049 -0.0061982983)
(0.10164524 0.021821789 -0.0061801218)
(0.10328473 0.039093681 0.017690525)
(0.10224559 0.021665979 0.039756094)
(0.085933954 -0.057508152 -0.011542921)
(0.10765978 0.022655843 -0.0094950642)
(0.12385959 -0.051200253 0.048552916)
(0.12509232 -0.049028462 0.017096819)
(0.12371194 -0.022683832 -0.013585725)
(0.12362227 0.022833757 -0.013561431)
(0.12482496 0.04922509 0.017227556)
(0.12348762 0.051769716 0.049143113)
(0.10740381 -0.023213426 -0.0095421095)
(0.12782989 -0.0075628508 -0.00043279554)
(0.14415119 -0.072154551 0.059001471)
(0.14640296 -0.051756442 0.020915148)
(0.14568264 -0.020592534 -0.012810226)
(0.14558533 0.020698924 -0.012784514)
(0.14610642 0.05198194 0.021021911)
(0.14371592 0.072915878 0.05960099)
(0.12747308 0.0073257686 -0.00029290028)
(0.14629494 -0.028357079 0.015190439)
(0.16399807 -0.076506859 0.066923755)
(0.16896999 -0.045981472 0.015444236)
(0.16974577 -0.016564453 -0.0220279)
(0.16964991 0.016566829 -0.021999661)
(0.16867016 0.046142822 0.015515805)
(0.16352534 0.077311709 0.067530049)
(0.14583925 0.028398777 0.015532462)
(0.16356527 -0.044747978 0.027209)
(0.18362629 -0.074237135 0.056705559)
(0.19063529 -0.019680466 -0.0019631065)
(0.19246459 -0.00073590422 -0.03490921)
(0.19237064 0.00059101162 -0.034895419)
(0.19033661 0.019780195 -0.001983809)
(0.18313038 0.075049237 0.057261503)
(0.16301978 0.044803811 0.027697826)
(0.0091514839 0.0069895156 -0.0047545726)
(0.014456258 0.0059741034 -0.00074939459)
(0.015870874 -0.0061983166 -0.00055822266)
(0.015642164 -0.0061607706 -0.0011929466)
(0.015623897 0.0062015924 -0.0011911674)
(0.015823515 0.0061910958 -0.00055415911)
(0.014406527 -0.0061915899 -0.00073109041)
(0.0091517672 -0.0072245105 -0.0048487417)
(0.032272926 0.10065945 -0.0053703022)
(0.045678335 0.044439454 0.013417921)
(0.048863206 -0.0084921201 0.00760008)
(0.048444502 -0.013780716 -1.3475012e-07)
(0.048394223 0.013871466 7.2266442e-06)
(0.048734456 0.0085074719 0.0076515427)
(0.045538207 -0.044806585 0.013617641)
(0.032263799 -0.10206372 -0.0055706628)
(0.053497207 0.085589776 -0.019931154)
(0.069403688 0.0061570257 0.019996036)
(0.072771611 -0.031253024 0.0092786815)
(0.072492789 -0.021711474 -0.0063266737)
(0.072408299 0.021799587 -0.0063156952)
(0.072542357 0.031308189 0.0093603234)
(0.069126814 -0.0062156276 0.020346034)
(0.053396996 -0.086857405 -0.020240408)
(0.073535607 0.058738572 -0.014436152)
(0.089530866 -0.028853491 0.040377718)
(0.092903258 -0.047269275 0.015756129)
(0.093103361 -0.025568259 -0.010539479)
(0.092987924 0.02561363 -0.010526626)
(0.092576192 0.047326976 0.015863403)
(0.089105428 0.02907487 0.040884922)
(0.073298599 -0.059637078 -0.014654937)
(0.092839398 0.020248961 -0.013426794)
(0.10915883 -0.062921848 0.049042038)
(0.11352454 -0.058982709 0.013341049)
(0.11457662 -0.027038634 -0.020625354)
(0.1144404 0.027030808 -0.020608069)
(0.11312848 0.059043052 0.013457362)
(0.10861401 0.063360303 0.049630126)
(0.09246064 -0.020754172 -0.013550914)
(0.1114375 -0.014280578 -0.0048004004)
(0.1286578 -0.086885239 0.058778912)
(0.13477988 -0.062339444 0.0154796)
(0.13689961 -0.024998599 -0.021898605)
(0.13675095 0.024929766 -0.021881402)
(0.13433924 0.062411556 0.015566962)
(0.12802001 0.08751184 0.059371676)
(0.11091747 0.014092874 -0.004761123)
(0.12906109 -0.038229629 0.010985901)
(0.1486034 -0.092213605 0.065622368)
(0.15813415 -0.056046178 0.0076548297)
(0.16214178 -0.020682664 -0.034043612)
(0.16199298 0.020511453 -0.034024857)
(0.15768387 0.056043999 0.0077066674)
(0.14790881 0.092865821 0.066217877)
(0.12840472 0.038290763 0.011216925)
(0.14625504 -0.057054814 0.022833858)
(0.16917558 -0.089972713 0.052453752)
(0.18131775 -0.027011376 -0.013758506)
(0.18675159 -0.0032034919 -0.050730074)
(0.18660383 0.0028810094 -0.050728038)
(0.18086454 0.026920488 -0.013814712)
(0.16844158 0.090612465 0.052978759)
(0.14547499 0.057107418 0.023207809)
(0.0086233672 0.0075206526 -0.0051438323)
(0.013755954 0.0059597695 -0.00079680037)
(0.015420562 -0.007390414 -0.00061992728)
(0.015476078 -0.0069362036 -0.0013002329)
(0.015452027 0.0069575671 -0.0012986621)
(0.01536031 0.0073696665 -0.00061735632)
(0.013693415 -0.0061771918 -0.0007808679)
(0.0086253729 -0.0077419663 -0.0052417466)
(0.03046703 0.10890492 -0.0059370706)
(0.043505883 0.046859609 0.014409983)
(0.047471586 -0.010931379 0.0079191151)
(0.047851859 -0.015627529 -0.00039132952)
(0.047785354 0.015665477 -0.0003856423)
(0.047305121 0.01091083 0.007964841)
(0.043325774 -0.04726099 0.01460341)
(0.03045005 -0.11023416 -0.0061302321)
(0.050439716 0.09190684 -0.022112723)
(0.066041539 0.0041948097 0.021135694)
(0.070769425 -0.036554504 0.0091210589)
(0.071751566 -0.02460883 -0.0079797174)
(0.071640965 0.024595855 -0.0079729022)
(0.070476162 0.03652899 0.0091913554)
(0.065688453 -0.0043366249 0.021472513)
(0.050302358 -0.093076675 -0.02245502)
(0.069292179 0.061981383 -0.016626093)
(0.085219052 -0.034924663 0.042603468)
(0.09054101 -0.05461945 0.015229117)
(0.092413534 -0.029106583 -0.013626627)
(0.092263512 0.029001161 -0.013621252)
(0.090125804 0.054545674 0.015316692)
(0.084681159 0.035011274 0.043094329)
(0.068981856 -0.062797196 -0.016908304)
(0.087530858 0.019228026 -0.016178939)
(0.10412309 -0.072883447 0.05107758)
(0.11099929 -0.067765404 0.011383689)
(0.11407282 -0.030936508 -0.025871138)
(0.11389545 0.030745209 -0.025863122)
(0.11049563 0.067657417 0.011475304)
(0.10343547 0.073149983 0.051648963)
(0.087044329 -0.019671536 -0.016398786)
(0.10524572 -0.019290261 -0.0076108447)
(0.12317255 -0.099601228 0.060524429)
(0.13231414 -0.071635434 0.012336552)
(0.13675392 -0.028869329 -0.028669579)
(0.13655902 0.0285995 -0.028663961)
(0.13174991 0.071520571 0.012395539)
(0.1223665 0.10004741 0.061095163)
(0.10458501 0.019157468 -0.0077005344)
(0.12222527 -0.046177515 0.0086064679)
(0.14295375 -0.1057087 0.06666727)
(0.15591517 -0.064847419 0.0024481419)
(0.16246926 -0.024164926 -0.043205161)
(0.16227114 0.023800623 -0.04319965)
(0.15533097 0.06465667 0.0024638174)
(0.14207251 0.10616382 0.067233906)
(0.12139914 0.046260656 0.0086871453)
(0.13900025 -0.06727703 0.020505061)
(0.16363155 -0.10336261 0.050970299)
(0.17956179 -0.033045078 -0.022481983)
(0.18774923 -0.0049642069 -0.063108557)
(0.18754958 0.0044490571 -0.063123227)
(0.17896529 0.032740455 -0.022585557)
(0.16269411 0.10378194 0.051442739)
(0.13802293 0.06733467 0.020714185)
(0.0081511145 0.0081241557 -0.0055378707)
(0.013187294 0.0061610026 -0.00085835983)
(0.015148376 -0.0083940423 -0.00068231154)
(0.015510316 -0.0076423805 -0.0014125204)
(0.015481746 0.0076406574 -0.0014107656)
(0.015079072 0.0083579731 -0.00067990961)
(0.013117694 -0.0063748498 -0.00084509315)
(0.0081494278 -0.0083297253 -0.0056379053)
(0.028891045 0.11701724 -0.0064424483)
(0.04178867 0.049732327 0.015459726)
(0.046648933 -0.012919021 0.0083773115)
(0.047872542 -0.017300327 -0.00062948801)
(0.047793397 0.017274771 -0.00062519463)
(0.046454106 0.012857307 0.0084184285)
(0.041579107 -0.050163378 0.015644418)
(0.028852961 -0.11825198 -0.0066243931)
(0.048011949 0.098418125 -0.023993988)
(0.063764272 0.0031752759 0.022598343)
(0.070009123 -0.041110727 0.0094262553)
(0.072283859 -0.027234823 -0.009144695)
(0.072153477 0.027104245 -0.0091414238)
(0.069668197 0.040993068 0.0094852991)
(0.063353029 -0.0034043256 0.022919795)
(0.047828639 -0.099469114 -0.024367317)
(0.066193264 0.065843429 -0.018246094)
(0.082702993 -0.039658447 0.045501697)
(0.090123807 -0.061010775 0.015603088)
(0.093652161 -0.032299047 -0.015764128)
(0.093476295 0.032023076 -0.015766509)
(0.089644318 0.060789891 0.01566812)
(0.082082477 0.039598184 0.045973262)
(0.065813281 -0.066558011 -0.01859517)
(0.083914437 0.019308738 -0.017965614)
(0.10151292 -0.081178371 0.054300538)
(0.11095197 -0.075432115 0.01089351)
(0.11595491 -0.03442946 -0.029606102)
(0.11574635 0.034033795 -0.029608921)
(0.1103692 0.075137643 0.010955268)
(0.10072035 0.081255934 0.054849968)
(0.083336454 -0.019677105 -0.01829013)
(0.10126957 -0.022744399 -0.0089881712)
(0.12060995 -0.11042138 0.064018497)
(0.13266481 -0.07972717 0.011203835)
(0.13922465 -0.032295151 -0.033369086)
(0.13899401 0.031804549 -0.033377621)
(0.13200834 0.079406029 0.011227031)
(0.11968063 0.11066833 0.064559599)
(0.10049661 0.022670937 -0.0092145437)
(0.11806351 -0.052199657 0.0081476945)
(0.14054702 -0.11721326 0.07005893)
(0.15659146 -0.072430677 -0.00026882331)
(0.16533414 -0.027180552 -0.049704567)
(0.16509648 0.026607904 -0.049715419)
(0.15590399 0.072032676 -0.00029306128)
(0.13952598 0.11745621 0.070584771)
(0.11710448 0.052306196 0.0080631355)
(0.13476747 -0.075270747 0.020577295)
(0.16145623 -0.11472079 0.052451813)
(0.18059826 -0.037969898 -0.0280501)
(0.19100065 -0.0063090004 -0.072185345)
(0.1907582 0.0055927446 -0.072220938)
(0.17988883 0.037433861 -0.028204834)
(0.16036411 0.11490449 0.052856834)
(0.13363791 0.075341725 0.020594304)
(0.0079400389 0.0087206001 -0.005885133)
(0.012936216 0.0064390018 -0.00090509525)
(0.015185415 -0.0092843486 -0.00072663283)
(0.015869011 -0.0082831432 -0.0015049466)
(0.015838449 0.0082590904 -0.0015034267)
(0.01511113 0.0092339239 -0.0007251424)
(0.012859677 -0.0066338671 -0.0008925452)
(0.0079340003 -0.0088990721 -0.0059845442)
(0.027895466 0.12448255 -0.0068615987)
(0.040821093 0.052604184 0.016467185)
(0.046588178 -0.014665238 0.0088618007)
(0.048695929 -0.01881447 -0.00079339712)
(0.048611243 0.018726627 -0.00079150087)
(0.046378748 0.014556262 0.0088961119)
(0.040593685 -0.053049834 0.016647026)
(0.027858393 -0.12562889 -0.0070261468)
(0.04656329 0.10451878 -0.025611022)
(0.062781238 0.0025863236 0.024051484)
(0.070585814 -0.045185713 0.0098652232)
(0.074192211 -0.029617033 -0.010081348)
(0.074054145 0.029369097 -0.010083715)
(0.070225328 0.044962017 0.0099099153)
(0.062347926 -0.0028824433 0.024365895)
(0.046387658 -0.10544708 -0.026016534)
(0.064493361 0.069602223 -0.019558367)
(0.082029339 -0.04361039 0.048381927)
(0.091585857 -0.066745615 0.016233353)
(0.096779332 -0.03519595 -0.017489338)
(0.096594011 0.034747268 -0.017502475)
(0.091084126 0.066360568 0.016270639)
(0.081380972 0.043420116 0.048841193)
(0.064122164 -0.070220785 -0.019978994)
(0.082091279 0.019675662 -0.019333086)
(0.10118382 -0.088378382 0.057640471)
(0.11316672 -0.082309649 0.010870928)
(0.12005317 -0.037590285 -0.032672886)
(0.11983237 0.036986392 -0.032690178)
(0.11255535 0.081811977 0.010895488)
(0.10035434 0.088276613 0.058170519)
(0.081514431 -0.019974627 -0.019772743)
(0.099428422 -0.025565804 -0.0098644776)
(0.12064727 -0.11993823 0.067789779)
(0.13549533 -0.08695996 0.010728143)
(0.14405252 -0.035375156 -0.037184974)
(0.14380632 0.034659951 -0.03721153)
(0.13480238 0.086416816 0.010708981)
(0.11966954 0.11998368 0.068299716)
(0.098645232 0.025551451 -0.010241456)
(0.1163133 -0.057350021 0.008250338)
(0.14091474 -0.12737381 0.073946763)
(0.15975979 -0.079128351 -0.0019792586)
(0.17045527 -0.0298603 -0.055016864)
(0.1701974 0.029076799 -0.055048158)
(0.15902434 0.078511524 -0.0020533502)
(0.13983087 0.12739357 0.074423936)
(0.11532727 0.057480227 0.0079839756)
(0.13311995 -0.08220114 0.021334533)
(0.16207912 -0.12471317 0.054819513)
(0.18399703 -0.04217019 -0.032147693)
(0.19626322 -0.0074419195 -0.079702981)
(0.19599626 0.0065234284 -0.079764314)
(0.18322781 0.041396468 -0.032367761)
(0.1609096 0.12465362 0.055145025)
(0.13194537 0.082280284 0.021144911)
(0.0077463972 0.0092510999 -0.0061772185)
(0.012708609 0.0067091368 -0.00094942039)
(0.015302582 -0.01005173 -0.00076747989)
(0.016325122 -0.0088506853 -0.0015881212)
(0.016293604 0.0088034662 -0.0015864018)
(0.015219328 0.0099871126 -0.00076569366)
(0.01261248 -0.0069197212 -0.00093789948)
(0.0077270842 -0.009458173 -0.0062799135)
(0.026885982 0.13095333 -0.0071670688)
(0.039901751 0.055260628 0.017349803)
(0.04672884 -0.016134534 0.0093038726)
(0.04976403 -0.020153775 -0.00092223689)
(0.049677601 0.020002275 -0.00092217569)
(0.046501508 0.015995487 0.0093343885)
(0.039630591 -0.055746006 0.017532256)
(0.026791641 -0.1320568 -0.0073388407)
(0.045181452 0.11008011 -0.026682971)
(0.062034423 0.0022768064 0.025335729)
(0.071640484 -0.048706009 0.010303921)
(0.076634717 -0.031730899 -0.01085666)
(0.076497481 0.031370331 -0.010864274)
(0.071269915 0.048412549 0.010337486)
(0.061573047 -0.0026460675 0.025664245)
(0.044946582 -0.11084961 -0.027244862)
(0.063007593 0.073325408 -0.020205622)
(0.081848968 -0.046836597 0.050972394)
(0.093828609 -0.071750108 0.01690596)
(0.10074158 -0.037770181 -0.018905701)
(0.1005602 0.037164108 -0.018929714)
(0.093328958 0.071243448 0.016919403)
(0.081199209 0.046544523 0.051455522)
(0.0625936 -0.0737275 -0.020864821)
(0.080656837 0.020534829 -0.019936315)
(0.10159596 -0.094452475 0.060735201)
(0.11639572 -0.088334362 0.011065024)
(0.12519706 -0.040398635 -0.035204371)
(0.12498122 0.039608127 -0.035237337)
(0.11579298 0.087672178 0.011054087)
(0.10078262 0.094224516 0.061288859)
(0.080054006 -0.020593849 -0.020659153)
(0.098166524 -0.027522643 -0.010004147)
(0.12164279 -0.12805921 0.071399363)
(0.13949883 -0.093287328 0.010660322)
(0.15003844 -0.038112147 -0.040303257)
(0.1497965 0.037196364 -0.040349975)
(0.13881578 0.092558359 0.010596769)
(0.12069052 0.1279647 0.071917943)
(0.09737321 0.02772053 -0.010673778)
(0.11534065 -0.061400398 0.0090326075)
(0.14240775 -0.13606536 0.077824469)
(0.16414442 -0.084950598 -0.0030112943)
(0.17670179 -0.032237043 -0.059368509)
(0.17644371 0.031262533 -0.059422414)
(0.16340918 0.084145302 -0.0031385415)
(0.14134542 0.13592486 0.078287677)
(0.11435295 0.061679984 0.0084665131)
(0.13242058 -0.087843349 0.022792664)
(0.163924 -0.13325736 0.057520661)
(0.18856833 -0.045785264 -0.035207125)
(0.20254134 -0.0084396534 -0.085925642)
(0.20227009 0.0073373767 -0.086015277)
(0.18779028 0.044806964 -0.035497297)
(0.16276722 0.13302132 0.057799635)
(0.13124871 0.088032279 0.022301117)
(0.0075733499 0.0096067923 -0.0064407523)
(0.012497129 0.0070457769 -0.00098330444)
(0.015667603 -0.010730672 -0.00082778098)
(0.016934899 -0.0093624457 -0.0016627768)
(0.016903301 0.0092865789 -0.0016609106)
(0.015581839 0.010643762 -0.00082754243)
(0.012386232 -0.0072422862 -0.00097617397)
(0.0075311937 -0.0098177336 -0.0065245654)
(0.026185892 0.13637359 -0.0074616495)
(0.039039933 0.057700169 0.01809123)
(0.047275763 -0.017457622 0.0096034254)
(0.05115679 -0.021356622 -0.001051297)
(0.051071862 0.021130904 -0.0010514793)
(0.047042551 0.017249402 0.0096273833)
(0.038738868 -0.058239311 0.018251833)
(0.025989615 -0.13743038 -0.0075904199)
(0.04434637 0.11507946 -0.027436742)
(0.061483589 0.0023161008 0.026423494)
(0.073287855 -0.051808812 0.010570209)
(0.079631644 -0.033607141 -0.011545571)
(0.079501235 0.033130904 -0.011554519)
(0.072923938 0.051414486 0.010593709)
(0.061021673 -0.0027821756 0.026709088)
(0.043993695 -0.11579222 -0.027958042)
(0.0621924 0.077024807 -0.020483511)
(0.082024459 -0.049240575 0.053195338)
(0.096838114 -0.076109671 0.017366881)
(0.10547177 -0.040042147 -0.020149488)
(0.1053028 0.039286492 -0.020177006)
(0.096362653 0.075480338 0.017366817)
(0.081409115 0.048822357 0.053617904)
(0.061696157 -0.077325266 -0.021154633)
(0.079960093 0.021918333 -0.020092473)
(0.10251116 -0.09928058 0.063432614)
(0.12050008 -0.093530403 0.011141242)
(0.13124005 -0.042866632 -0.037397703)
(0.1310398 0.041905498 -0.03743658)
(0.11993297 0.092733453 0.011114058)
(0.1017668 0.098899412 0.063923252)
(0.07930361 -0.021895911 -0.020889882)
(0.097690036 -0.028495744 -0.0097492942)
(0.12326193 -0.13463722 0.074589958)
(0.14443483 -0.09870813 0.010548662)
(0.1569729 -0.040511283 -0.042995499)
(0.15674759 0.039416414 -0.043051917)
(0.14379283 0.097838941 0.010466039)
(0.12240323 0.13439086 0.075041623)
(0.09687121 0.0287782 -0.010532067)
(0.11519264 -0.064197556 0.010089602)
(0.14461169 -0.14316231 0.081317189)
(0.16943851 -0.089910336 -0.0038851922)
(0.18383487 -0.034312402 -0.063083407)
(0.18358991 0.033163667 -0.063149032)
(0.16873712 0.088958585 -0.0040319873)
(0.14364669 0.14286112 0.081709544)
(0.11420909 0.064537999 0.0093803954)
(0.13256942 -0.092060929 0.024457751)
(0.16652157 -0.14024775 0.060100892)
(0.19397538 -0.048857169 -0.03774569)
(0.20958792 -0.0093297247 -0.091214656)
(0.20932691 0.0080604795 -0.091322523)
(0.19322559 0.047725092 -0.038064088)
(0.16545064 0.1398573 0.060302428)
(0.13142509 0.092285568 0.023818393)
(0.0074983345 0.0099456579 -0.0067444408)
(0.012367185 0.0073533623 -0.00099854072)
(0.016846428 -0.011734599 -0.00093357678)
(0.017662157 -0.0099960543 -0.0017381865)
(0.017631064 0.009890363 -0.0017357898)
(0.016765918 0.011686526 -0.00094187486)
(0.012209254 -0.0075633126 -0.0009771403)
(0.0074167966 -0.010082057 -0.0068433103)
(0.025702546 0.14031506 -0.007956437)
(0.038309629 0.05935248 0.018791401)
(0.04875797 -0.019609548 0.0097563668)
(0.052802822 -0.022690058 -0.0012443129)
(0.052719774 0.022382464 -0.0012444448)
(0.048524714 0.019354438 0.0097666138)
(0.037909025 -0.060030047 0.018957308)
(0.025495638 -0.14104319 -0.0081207625)
(0.043740536 0.11880903 -0.028679953)
(0.061153565 0.0023221493 0.027531679)
(0.075808795 -0.0554709 0.010666789)
(0.083046345 -0.035439134 -0.012270404)
(0.082921799 0.034846727 -0.012278869)
(0.075448017 0.05502642 0.010688153)
(0.060626192 -0.0030389893 0.027788278)
(0.043433974 -0.11922358 -0.029251468)
(0.061553025 0.079778279 -0.021293807)
(0.082529086 -0.051286254 0.05531695)
(0.10065626 -0.08062588 0.017641139)
(0.11077113 -0.042124932 -0.021399222)
(0.11061171 0.041228362 -0.021425521)
(0.10019592 0.079933333 0.017651841)
(0.081880811 0.050598541 0.05569525)
(0.061156984 -0.079852234 -0.022022156)
(0.079466521 0.022647455 -0.020644874)
(0.10385558 -0.10332638 0.065981583)
(0.12534336 -0.098461957 0.011063965)
(0.1379351 -0.045048837 -0.039460067)
(0.1377466 0.043930904 -0.039497611)
(0.12480072 0.097580822 0.011059195)
(0.1030955 0.10269143 0.066412955)
(0.078928146 -0.022521223 -0.021527048)
(0.09748369 -0.029645325 -0.0098557639)
(0.12539688 -0.14011136 0.077554304)
(0.15004617 -0.10359758 0.010326194)
(0.16457648 -0.042595574 -0.045491294)
(0.16436427 0.041336528 -0.045548929)
(0.14943605 0.10262383 0.010270555)
(0.12452758 0.13965057 0.077962984)
(0.096770722 0.02994494 -0.010768917)
(0.1153745 -0.066732842 0.010769222)
(0.14738724 -0.149032 0.084523953)
(0.17532706 -0.094267715 -0.0047006585)
(0.19156486 -0.036098191 -0.066392227)
(0.19133191 0.034782079 -0.066458912)
(0.17465994 0.093188611 -0.0048152265)
(0.14641181 0.14854187 0.084893106)
(0.11450163 0.067030859 0.0099095571)
(0.13310482 -0.09566499 0.025734975)
(0.16968695 -0.14598774 0.062575035)
(0.19988163 -0.051590607 -0.039886919)
(0.21712107 -0.010131841 -0.095801234)
(0.21687217 0.0087004998 -0.095915103)
(0.19917041 0.050323568 -0.040175375)
(0.16861694 0.14543154 0.062775906)
(0.13207885 0.095823648 0.02495809)
(0.0075694576 0.0103369 -0.0068434874)
(0.012372801 0.0073557563 -0.001096912)
(0.018441025 -0.012350763 -0.00085157538)
(0.018246274 -0.010629624 -0.0018239343)
(0.018199011 0.010499815 -0.0018252154)
(0.018345145 0.012404569 -0.00085786204)
(0.012258434 -0.0077143599 -0.0010625855)
(0.0074550718 -0.010554951 -0.0070039725)
(0.025210429 0.1434765 -0.0079676864)
(0.037861992 0.058955591 0.019209758)
(0.050877625 -0.022450877 0.010416479)
(0.054131192 -0.02403941 -0.0014729058)
(0.054013182 0.023628038 -0.0014882799)
(0.050623689 0.022609689 0.010396243)
(0.03755871 -0.059783839 0.019480865)
(0.025029981 -0.14430892 -0.0083225134)
(0.043025898 0.12115055 -0.028976698)
(0.061224127 0.00056221613 0.028371609)
(0.078909694 -0.060250056 0.011232129)
(0.086204914 -0.037110119 -0.013006114)
(0.086039681 0.036337554 -0.013034962)
(0.078537002 0.059422744 0.011196064)
(0.060812389 -0.0024582253 0.028851724)
(0.042773533 -0.1221988 -0.029924209)
(0.060899731 0.081441343 -0.021250458)
(0.083536918 -0.053983718 0.057013062)
(0.10492394 -0.085879221 0.018339822)
(0.11593423 -0.043878797 -0.022659584)
(0.11573691 0.042774243 -0.022699572)
(0.10446075 0.084823818 0.018369181)
(0.083012658 0.05239695 0.057632621)
(0.060523109 -0.081996935 -0.022321523)
(0.079050251 0.022986011 -0.020392455)
(0.10576754 -0.10722272 0.068106324)
(0.13053539 -0.10358803 0.011433632)
(0.14458038 -0.046794651 -0.041406481)
(0.14436125 0.045453358 -0.041448384)
(0.13000099 0.10233973 0.011490686)
(0.10511116 0.1059267 0.0687815)
(0.078580646 -0.023084057 -0.021604775)
(0.097444656 -0.030666783 -0.0092253568)
(0.12812027 -0.14483543 0.080072064)
(0.15591349 -0.10828867 0.010495929)
(0.17217991 -0.044223301 -0.047821393)
(0.17194657 0.04273655 -0.047877988)
(0.15532177 0.10696252 0.010508807)
(0.12733969 0.14393996 0.080729344)
(0.096833977 0.030865563 -0.01048996)
(0.11581329 -0.068791328 0.011957658)
(0.15074671 -0.15393247 0.087290419)
(0.18137909 -0.098276465 -0.004979755)
(0.1992732 -0.0374793 -0.069326563)
(0.19902901 0.035935087 -0.069384445)
(0.18074321 0.09683783 -0.0050243157)
(0.14983987 0.15309608 0.087895839)