/*--------------------------------*- C++ -*----------------------------------*\
  =========                 |
  \\      /  F ield         | OpenFOAM: The Open Source CFD Toolbox
   \\    /   O peration     | Website:  https://openfoam.org
    \\  /    A nd           | Version:  13
     \\/     M anipulation  |
\*---------------------------------------------------------------------------*/
FoamFile
{
    format      ascii;
    class       volVectorField;
    location    "0.12";
    object      U;
}
// * * * * * * * * * * * * * * * * * * * * * * * * * * * * * * * * * * * * * //

dimensions      [0 1 -1 0 0 0 0];

internalField   nonuniform List<vector> 
51200
(
(0.053436073 0.012904481 0.011807824)
(0.058507195 0.0069905563 0.012024803)
(0.057183094 0.0031401652 0.012111375)
(0.056467143 0.00083403731 0.012142131)
(0.05646716 -0.00083309294 0.012142128)
(0.057183151 -0.0031393069 0.012111371)
(0.058507295 -0.006989912 0.012024797)
(0.053436209 -0.012904344 0.011807819)
(0.12300323 0.031921684 0.033836735)
(0.12996729 0.014331498 0.033119324)
(0.12698475 0.006500276 0.03311528)
(0.12558711 0.0017574814 0.03314438)
(0.12558715 -0.0017553176 0.033144369)
(0.12698486 -0.0064983114 0.033115252)
(0.12996749 -0.014329972 0.033119291)
(0.12300353 -0.031921238 0.033836707)
(0.16695039 0.041716322 0.046537716)
(0.1722993 0.018118743 0.044317189)
(0.16843728 0.0082833903 0.044122687)
(0.16679764 0.002258459 0.044206737)
(0.16679768 -0.0022555215 0.044206713)
(0.16843741 -0.0082807064 0.044122622)
(0.17229953 -0.018116576 0.044317097)
(0.16695078 -0.041715517 0.04653763)
(0.19408063 0.045531103 0.052515327)
(0.1967016 0.01985643 0.048823032)
(0.19250011 0.0091134931 0.048426825)
(0.19085572 0.0025033574 0.04857411)
(0.19085576 -0.0024999425 0.048574073)
(0.19250024 -0.0091103488 0.048426717)
(0.1967018 -0.019853797 0.048822874)
(0.19408103 -0.045529914 0.05251515)
(0.21005909 0.045994046 0.054367701)
(0.20997472 0.020407235 0.049510229)
(0.20578494 0.0093662577 0.048963905)
(0.20425231 0.002592688 0.049157264)
(0.20425234 -0.0025889874 0.049157214)
(0.20578504 -0.0093628224 0.048963757)
(0.20997489 -0.020404259 0.04951001)
(0.21005946 -0.045992472 0.054367419)
(0.2186388 0.044562278 0.053571047)
(0.21635068 0.020266883 0.047960181)
(0.21238649 0.0092731869 0.047337192)
(0.21101339 0.0025883464 0.047545899)
(0.21101342 -0.0025844805 0.047545841)
(0.21238657 -0.0092695677 0.04733701)
(0.2163508 -0.020263648 0.047959911)
(0.21863912 -0.04456033 0.053570661)
(0.22237272 0.042045658 0.051031557)
(0.21851017 0.019729025 0.045135656)
(0.21489568 0.0089743971 0.044491333)
(0.21369465 0.0025277312 0.044677901)
(0.21369468 -0.0025237746 0.044677835)
(0.21489573 -0.0089706595 0.044491125)
(0.21851025 -0.019725589 0.045135348)
(0.22237299 -0.042043358 0.051031077)
(0.22295924 0.039028806 0.047544001)
(0.21812579 0.018907279 0.041596499)
(0.21493156 0.0085597962 0.041028823)
(0.21389979 0.0024332236 0.041162039)
(0.21389981 -0.0024292236 0.041161968)
(0.21493161 -0.0085559793 0.041028598)
(0.21812584 -0.018903683 0.041596175)
(0.22295945 -0.039026189 0.047543459)
(0.036052237 0.0034000024 0.0012593527)
(0.041643766 0.0037750182 0.0013632809)
(0.03990502 0.0022120689 0.0012935868)
(0.038603511 0.00071014802 0.0012732281)
(0.038603626 -0.00070799451 0.0012732255)
(0.03990541 -0.0022101304 0.0012935807)
(0.041644435 -0.0037736067 0.0013632776)
(0.036052937 -0.0033997725 0.0012593598)
(0.095904883 0.011357603 0.0075424091)
(0.10658057 0.010590611 0.0078285255)
(0.10209845 0.0059697841 0.0075218036)
(0.099100296 0.0018833819 0.007442375)
(0.099100566 -0.0018778338 0.0074423544)
(0.10209936 -0.0059647738 0.0075217419)
(0.10658218 -0.010586831 0.0078284828)
(0.09590673 -0.011356663 0.0075424045)
(0.14515862 0.019525815 0.015299583)
(0.15659586 0.016218297 0.015414029)
(0.15004823 0.0089355966 0.014790516)
(0.14605011 0.002792878 0.014654095)
(0.14605047 -0.0027848078 0.014654048)
(0.15004942 -0.008928255 0.01479036)
(0.15659804 -0.016212564 0.015413894)
(0.14516131 -0.019523963 0.015299505)
(0.18428335 0.026579946 0.022880966)
(0.19367739 0.020463608 0.022516081)
(0.18569277 0.011105462 0.02157636)
(0.1812096 0.0034533255 0.021400364)
(0.18120998 -0.0034434546 0.021400285)
(0.18569405 -0.011096408 0.021576085)
(0.1936798 -0.020456299 0.022515808)
(0.18428657 -0.026577056 0.022880742)
(0.21390199 0.031936952 0.029300337)
(0.21975719 0.023380543 0.02827058)
(0.21090184 0.012559267 0.027066663)
(0.2062933 0.0038972793 0.026868299)
(0.20629368 -0.0038861598 0.026868188)
(0.21090309 -0.012548981 0.027066261)
(0.21975961 -0.023371969 0.028270144)
(0.21390545 -0.031932963 0.02929991)
(0.23497215 0.035550854 0.034177323)
(0.23681323 0.025137649 0.032427748)
(0.22757021 0.013412279 0.031043855)
(0.22307073 0.0041632846 0.030835378)
(0.22307108 -0.0041513198 0.03083524)
(0.22757134 -0.013401118 0.031043332)
(0.23681548 -0.025128063 0.032427144)
(0.23497564 -0.035545753 0.034176656)
(0.24865773 0.037636248 0.037496394)
(0.2467244 0.025918912 0.035061793)
(0.23748133 0.013781679 0.033597006)
(0.23323314 0.0042878587 0.033386171)
(0.23323345 -0.004275336 0.033386008)
(0.23748233 -0.013769903 0.033596385)
(0.24672639 -0.025908522 0.035061032)
(0.24866108 -0.037630062 0.037495474)
(0.25610494 0.038455852 0.039401014)
(0.25111969 0.025868174 0.036327341)
(0.24216153 0.013770303 0.034911215)
(0.23824661 0.0043012729 0.034703569)
(0.23824689 -0.0042883973 0.03470338)
(0.24216239 -0.013758103 0.034910535)
(0.25112138 -0.025857157 0.036326458)
(0.25610804 -0.038448679 0.039399888)
(0.016320288 0.0014846946 -2.7496322e-06)
(0.023414584 0.0028443806 8.7083731e-05)
(0.024115401 0.0019294825 8.8239886e-05)
(0.023461776 0.00064559707 8.3407291e-05)
(0.023462106 -0.00064214376 8.3401967e-05)
(0.024116509 -0.0019264064 8.8232354e-05)
(0.023416374 -0.0028422518 8.7081222e-05)
(0.01632193 -0.0014844353 -2.7412557e-06)
(0.05242054 0.0050919022 0.0019133984)
(0.069151602 0.0080808219 0.002395564)
(0.069998001 0.0052764616 0.0022908709)
(0.068137707 0.0017563895 0.002202661)
(0.068138518 -0.0017471546 0.0022026229)
(0.070000744 -0.0052681997 0.0022907869)
(0.069156239 -0.0080748729 0.002395536)
(0.052425204 -0.0050906329 0.0019134214)
(0.089867316 0.0096326724 0.0053741568)
(0.11192952 0.012859458 0.0062141425)
(0.11200692 0.0081259604 0.0059202784)
(0.10910669 0.0026864347 0.0057061807)
(0.1091078 -0.0026726172 0.005706094)
(0.11201072 -0.0081135032 0.0059200623)
(0.11193618 -0.012850173 0.0062140372)
(0.089874525 -0.0096300027 0.0053741494)
(0.12645933 0.014732809 0.010035822)
(0.15014146 0.017029571 0.011058096)
(0.14892173 0.010457827 0.010503276)
(0.14520724 0.0034355226 0.010139363)
(0.1452085 -0.0034182199 0.010139218)
(0.14892606 -0.010442093 0.010502883)
(0.15014936 -0.017017447 0.011057854)
(0.12646848 -0.01472848 0.010035711)
(0.16021238 0.019843765 0.015241695)
(0.18265639 0.020443613 0.016189882)
(0.17995211 0.012258591 0.01532874)
(0.17567435 0.0040071747 0.014814708)
(0.17567565 -0.0039873095 0.014814504)
(0.17995657 -0.012240364 0.015328144)
(0.18266484 -0.020429108 0.016189445)
(0.16022284 -0.019837621 0.015241393)
(0.1896062 0.024537464 0.020456812)
(0.20894459 0.023008936 0.021072597)
(0.20481626 0.013535263 0.01988299)
(0.20021567 0.0044104126 0.01923328)
(0.20021692 -0.0043887197 0.01923302)
(0.20482056 -0.013515182 0.019882186)
(0.20895302 -0.022992452 0.021071918)
(0.18961734 -0.024529427 0.020456231)
(0.21365955 0.028545902 0.025315733)
(0.22902977 0.024679708 0.025354946)
(0.22367195 0.014317471 0.023838117)
(0.21895546 0.0046595606 0.023079022)
(0.21895661 -0.0046366057 0.023078716)
(0.22367591 -0.014296038 0.023837115)
(0.22903777 -0.0246616 0.025354004)
(0.21367084 -0.028535968 0.025314805)
(0.23185788 0.031562615 0.029321529)
(0.24336341 0.025462868 0.028683069)
(0.23697423 0.014659397 0.026899818)
(0.23231091 0.0047736549 0.026084934)
(0.23231194 -0.0047498668 0.026084593)
(0.23697775 -0.014637006 0.026898659)
(0.24337067 -0.025443446 0.028681867)
(0.23186891 -0.031550904 0.029320273)
(0.014191342 0.00059139811 7.7965341e-05)
(0.020910027 0.001587646 0.00010781138)
(0.02243396 0.0012422643 0.00010058217)
(0.022220762 0.00043945307 9.0179081e-05)
(0.022221405 -0.00043446246 9.0172336e-05)
(0.022436039 -0.0012379087 0.00010057708)
(0.020913184 -0.0015847845 0.00010781586)
(0.014194019 -0.00059117151 7.7981824e-05)
(0.04382208 0.0022595197 0.00077610694)
(0.060450758 0.0048566466 0.001058718)
(0.063884933 0.0036458312 0.001014417)
(0.063192497 0.0012804048 0.00092439508)
(0.063194113 -0.001266848 0.00092434848)
(0.063890237 -0.0036339246 0.0010143405)
(0.060459186 -0.0048484519 0.0010587514)
(0.043829898 -0.0022580706 0.00077618711)
(0.074036074 0.0045803863 0.0022451966)
(0.097373446 0.008158949 0.0028959336)
(0.1016824 0.0059047195 0.0027649189)
(0.10045279 0.0020571375 0.0025434505)
(0.10045506 -0.0020365752 0.002543344)
(0.10168997 -0.0058865029 0.0027647083)
(0.097385957 -0.0081459359 0.0028959683)
(0.074048504 -0.0045770852 0.0022453211)
(0.10421102 0.0074745275 0.0044793476)
(0.13141392 0.011365282 0.005501853)
(0.13572312 0.0079474991 0.0052250176)
(0.13392681 0.0027468454 0.0048376486)
(0.13392947 -0.002720771 0.00483747)
(0.13573207 -0.0079241814 0.0052246157)
(0.13142932 -0.011348045 0.005501838)
(0.10422733 -0.0074689385 0.0044794588)
(0.13355376 0.010771127 0.0073556458)
(0.16217284 0.014317996 0.0086449509)
(0.16580898 0.0097051369 0.008160045)
(0.1634623 0.0033303972 0.0075933269)
(0.16346511 -0.0033001334 0.0075930725)
(0.16581858 -0.0096778089 0.0081594105)
(0.16219001 -0.014297128 0.0086448151)
(0.1335731 -0.010762974 0.0073556531)
(0.16114365 0.014251251 0.010683701)
(0.18923365 0.016862108 0.012055795)
(0.1917346 0.01112553 0.011306722)
(0.18889832 0.0037952703 0.010565904)
(0.18890112 -0.0037619281 0.010565577)
(0.19174424 -0.011095127 0.011305832)
(0.18925156 -0.016838166 0.012055465)
(0.1611651 -0.014240383 0.010683494)
(0.18603963 0.017672228 0.014232666)
(0.21230306 0.018864613 0.015453588)
(0.21337985 0.012181935 0.014402528)
(0.2101477 0.0041369779 0.01351116)
(0.21015037 -0.0041014562 0.013510769)
(0.21338907 -0.012149233 0.014401382)
(0.21232084 -0.018838107 0.015453005)
(0.18606228 -0.01765861 0.014232135)
(0.20740298 0.020709865 0.017614485)
(0.2313345 0.020253814 0.018573819)
(0.23077086 0.012877264 0.017207778)
(0.22726011 0.0043594529 0.016219808)
(0.22726257 -0.0043224622 0.016219368)
(0.23077937 -0.012842897 0.017206405)
(0.23135141 -0.020225193 0.018572939)
(0.20742601 -0.020693648 0.017613624)
(0.011500302 0.00032874071 1.5827299e-05)
(0.018053929 0.00097414707 4.4615502e-05)
(0.020340595 0.00080215818 4.4421571e-05)
(0.020636791 0.0002888284 3.5774724e-05)
(0.020637904 -0.00028188468 3.5767898e-05)
(0.02034408 -0.00079622494 4.4420502e-05)
(0.018058982 -0.00097040568 4.4626884e-05)
(0.011504409 -0.00032855483 1.5851271e-05)
(0.036259351 0.0012652095 0.0004267977)
(0.052977381 0.0030254149 0.00064477007)
(0.058564996 0.0024304961 0.00061943997)
(0.059185124 0.00087844518 0.00053280305)
(0.059187973 -0.00085948876 0.00053275517)
(0.058574057 -0.0024141525 0.00061938328)
(0.052991108 -0.0030145358 0.00064486896)
(0.036271553 -0.0012635484 0.00042692127)
(0.062102548 0.0025929963 0.0012805574)
(0.086248422 0.0051735217 0.0017698683)
(0.093967832 0.0040471425 0.001687204)
(0.09465741 0.001459181 0.001475002)
(0.09466149 -0.001430291 0.0014748901)
(0.093981003 -0.0040219824 0.0016870285)
(0.086269129 -0.0051560706 0.00177006)
(0.062122225 -0.0025889385 0.0012807779)
(0.088462804 0.0043012887 0.0025877552)
(0.1175992 0.0073682661 0.0033728118)
(0.12642129 0.0056046422 0.0031924717)
(0.12696286 0.002011075 0.0028223789)
(0.12696772 -0.0019742644 0.0028221878)
(0.12643719 -0.0055722503 0.0031921113)
(0.11762515 -0.0073449636 0.0033730648)
(0.088488999 -0.0042941801 0.0025880294)
(0.1147409 0.0063323071 0.0043039342)
(0.14675988 0.0095254616 0.0053469582)
(0.15580561 0.0070464028 0.0050237773)
(0.15603109 0.0025140386 0.0044820193)
(0.15603632 -0.0024711228 0.0044817429)
(0.15582302 -0.007008243 0.0050231773)
(0.14678937 -0.009497077 0.0053472036)
(0.11477245 -0.006321727 0.0043041782)
(0.14030382 0.0085990519 0.0063630329)
(0.17347976 0.011540484 0.0075676399)
(0.1820178 0.0083180478 0.0070555384)
(0.18181335 0.0029505834 0.0063445763)
(0.18181866 -0.0029031231 0.0063442161)
(0.18203571 -0.0082754066 0.0070546613)
(0.17351122 -0.011507774 0.0075677916)
(0.14033942 -0.0085847715 0.0063631306)
(0.16449647 0.010974679 0.0086624417)
(0.19757085 0.013303217 0.0098833163)
(0.2049892 0.0093776634 0.0091449626)
(0.20429505 0.0033083749 0.0082840143)
(0.20430022 -0.0032576652 0.0082835784)
(0.20500678 -0.0093316332 0.0091437923)
(0.19760287 -0.013266893 0.0098832911)
(0.16453481 -0.010956644 0.0086622659)
(0.18667668 0.013246687 0.010977093)
(0.21897649 0.014738228 0.012157135)
(0.22470672 0.010203415 0.011162785)
(0.22351847 0.0035819898 0.010198027)
(0.22352332 -0.0035290786 0.010197529)
(0.22472335 -0.010154906 0.011161337)
(0.2190078 -0.014698917 0.012156844)
(0.18671648 -0.013225104 0.010976641)
(0.010238741 0.00018737663 1.4293524e-05)
(0.016502178 0.00057933404 3.2517046e-05)
(0.019184723 0.00048787438 3.1731173e-05)
(0.019854504 0.00017839591 2.4064864e-05)
(0.019856258 -0.00016887245 2.4059756e-05)
(0.019190056 -0.00047990597 3.1734161e-05)
(0.016509635 -0.00057449298 3.2533461e-05)
(0.010244625 -0.00018724866 1.432215e-05)
(0.03232739 0.00073427351 0.00025650775)
(0.048584771 0.0018431184 0.00041448205)
(0.055406134 0.001539269 0.00040119292)
(0.057050521 0.00057074521 0.00032878331)
(0.057055064 -0.00054470503 0.00032874718)
(0.055420172 -0.0015172105 0.00040117465)
(0.048605248 -0.0018288579 0.00041465945)
(0.032345054 -0.0007323563 0.00025666827)
(0.055503927 0.0015231828 0.00077125017)
(0.079401825 0.0032130056 0.0011406575)
(0.089207836 0.0026395707 0.0010947214)
(0.091470138 0.00098139475 0.00091723519)
(0.091476726 -0.00094166012 0.0009171467)
(0.089228493 -0.0026055027 0.0010946328)
(0.079433036 -0.0031899476 0.0011410524)
(0.055532669 -0.0015181798 0.00077156074)
(0.079351386 0.0025577815 0.0015708694)
(0.10879206 0.0046667408 0.0021817031)
(0.12053283 0.0037564999 0.0020762322)
(0.12308651 0.0013944762 0.0017663138)
(0.12309446 -0.0013437955 0.0017661562)
(0.12055812 -0.0037125306 0.0020760069)
(0.10883161 -0.0046357697 0.0021823185)
(0.079390018 -0.0025487574 0.0015713076)
(0.10342834 0.0038173106 0.0026370114)
(0.13658811 0.0061600344 0.003474988)
(0.14932052 0.0048500084 0.003278445)
(0.15188016 0.0017935044 0.0028239792)
(0.15188887 -0.0017343745 0.0028237428)
(0.14934864 -0.0047981154 0.0032780149)
(0.13663364 -0.0061221545 0.0034757654)
(0.10347534 -0.0038036563 0.0026375036)
(0.12727065 0.0052646659 0.0039387561)
(0.1626382 0.0076323128 0.0049496157)
(0.17551857 0.0058783699 0.0046287525)
(0.17784724 0.0021627864 0.0040307425)
(0.17785622 -0.0020973706 0.0040304245)
(0.17554798 -0.0058203144 0.0046280605)
(0.16268748 -0.007588554 0.0049504596)
(0.12732429 -0.0052460512 0.0039391829)
(0.15039742 0.0068377197 0.0054249412)
(0.18683634 0.009013487 0.0065212491)
(0.19909253 0.0068043344 0.0060466327)
(0.20100733 0.002489223 0.0053192974)
(0.2010162 -0.0024193316 0.0053189019)
(0.19912194 -0.0067416273 0.0060456407)
(0.1868873 -0.0089648437 0.0065220531)
(0.15045589 -0.0068140712 0.0054251622)
(0.17232333 0.0084168689 0.0069742003)
(0.20916497 0.010249136 0.008124128)
(0.22003046 0.0076005633 0.0074638838)
(0.22141133 0.0027639415 0.0066422711)
(0.22141982 -0.0026910493 0.0066418043)
(0.22005883 -0.0075344727 0.007462581)
(0.20921574 -0.010196489 0.008124756)
(0.17238484 -0.0083884755 0.0069742297)
(0.0094043856 0.00011911762 7.5449637e-06)
(0.015446063 0.00036078451 2.1069045e-05)
(0.018371106 0.00030065519 2.1401913e-05)
(0.019311014 0.00011116768 1.5669034e-05)
(0.019313647 -9.8081482e-05 1.5669343e-05)
(0.018378931 -0.00028991007 2.1410777e-05)
(0.015456724 -0.000354473 2.1093328e-05)
(0.0094126349 -0.00011905754 7.581751e-06)
(0.02978636 0.00046102826 0.00016039016)
(0.045631798 0.0011578606 0.00027716403)
(0.053216382 0.00097721579 0.00027332519)
(0.055614304 0.00037089229 0.00021828845)
(0.05562118 -0.00033509998 0.00021828046)
(0.053237134 -0.00094736023 0.00027336131)
(0.045661257 -0.0011390579 0.00027743415)
(0.029811281 -0.00045874541 0.00016059038)
(0.051278947 0.00095337171 0.00048797988)
(0.074807872 0.0020379405 0.00076396667)
(0.085923418 0.0017135468 0.00074476563)
(0.089365689 0.00065578994 0.00060938938)
(0.089375744 -0.00060118216 0.00060935556)
(0.085954188 -0.001667344 0.00074480247)
(0.074853037 -0.0020073322 0.00076459527)
(0.05131971 -0.00094706482 0.00048837099)
(0.073528423 0.001603767 0.0010007049)
(0.10285513 0.0029947101 0.0014638614)
(0.11646371 0.0024909766 0.0014125343)
(0.12056396 0.00095499471 0.0011755867)
(0.1205762 -0.00088537974 0.0011755085)
(0.11650171 -0.0024312768 0.0014125085)
(0.10291274 -0.0029533968 0.0014648909)
(0.073583502 -0.0015921187 0.0010012749)
(0.096168211 0.0024053234 0.0016895557)
(0.12965522 0.0040072816 0.0023376048)
(0.14480514 0.0032847326 0.0022334804)
(0.14921188 0.0012569182 0.0018853636)
(0.14922544 -0.001175772 0.001885226)
(0.14484781 -0.0032142466 0.0022333097)
(0.12972203 -0.003956586 0.00233899)
(0.096235594 -0.0023874664 0.0016902341)
(0.11881833 0.0033421886 0.0025386535)
(0.15510555 0.0050432407 0.0033423992)
(0.17091865 0.0040671551 0.0031629765)
(0.17532181 0.0015498392 0.0027040475)
(0.17533596 -0.0014601852 0.0027038412)
(0.17096376 -0.0039883235 0.0031625804)
(0.15517846 -0.004984571 0.0033440366)
(0.1188957 -0.0033176515 0.0025393128)
(0.14108626 0.0043841457 0.003521143)
(0.17914085 0.0060619188 0.0044295272)
(0.1947827 0.004811074 0.0041535101)
(0.1989207 0.0018229917 0.0035939258)
(0.19893486 -0.0017273661 0.0035936473)
(0.19482836 -0.0047260065 0.0041528235)
(0.17921698 -0.0059966681 0.0044312881)
(0.14117117 -0.0043528279 0.003521628)
(0.16256965 0.0054643212 0.0045696095)
(0.20176466 0.0070295198 0.005566658)
(0.21638219 0.0054930786 0.005166384)
(0.22005382 0.0020677353 0.0045311735)
(0.22006755 -0.0019682062 0.0045308177)
(0.21642685 -0.0054035515 0.0051653643)
(0.20184136 -0.0069589386 0.0055683622)
(0.16265963 -0.0054266284 0.0045699732)
(0.0088816458 7.965095e-05 4.7927579e-06)
(0.014745764 0.00023503733 1.4286151e-05)
(0.017800922 0.00019347878 1.5073866e-05)
(0.018919853 7.3636547e-05 1.1025297e-05)
(0.018923698 -5.5595548e-05 1.1034703e-05)
(0.017812145 -0.00017892142 1.5087779e-05)
(0.014760752 -0.00022676785 1.4317142e-05)
(0.0088930538 -7.967664e-05 4.8366169e-06)
(0.028170455 0.0003039722 0.00010383635)
(0.043649764 0.00075641044 0.0001896626)
(0.051668197 0.00064087571 0.00019304216)
(0.054578844 0.00025182772 0.00015445872)
(0.054588943 -0.00020246375 0.0001544958)
(0.051698119 -0.00060027718 0.00019314144)
(0.043691377 -0.00073150266 0.00019002644)
(0.028205101 -0.00030119528 0.0001040624)
(0.0485644 0.00062502959 0.0003188533)
(0.071694366 0.001337552 0.00052534373)
(0.083582994 0.0011401875 0.00052706772)
(0.087846014 0.00045263023 0.00043180199)
(0.087860866 -0.0003773255 0.00043185497)
(0.083627581 -0.0010772311 0.00052725512)
(0.071758421 -0.0012967338 0.00052621111)
(0.048621297 -0.0006169687 0.00031928266)
(0.06975157 0.0010504734 0.00065870079)
(0.098788971 0.0019786761 0.001010942)
(0.11353615 0.0016812907 0.0010017872)
(0.11873683 0.00066907012 0.0008344322)
(0.11875503 -0.00057312389 0.00083448002)
(0.11359151 -0.0015998452 0.0010020046)
(0.09887101 -0.0019233052 0.0010123972)
(0.069828738 -0.0010352876 0.00065931996)
(0.091412006 0.0015793193 0.0011197996)
(0.12484561 0.0026706119 0.0016215895)
(0.14151358 0.002249803 0.0015884076)
(0.14726715 0.00089364066 0.0013416537)
(0.14728746 -0.00078191481 0.0013416735)
(0.14157614 -0.0021535989 0.0015885554)
(0.12494118 -0.0026024189 0.0016236011)
(0.091506767 -0.0015557785 0.0011205306)
(0.11321592 0.0022054485 0.0016943228)
(0.14979064 0.0033963996 0.0023305722)
(0.16750029 0.0028286805 0.0022579719)
(0.17345738 0.0011184268 0.001931563)
(0.17347874 -0.0009951679 0.0019315354)
(0.16756689 -0.0027211147 0.0022579402)
(0.14989547 -0.0033172936 0.0023330284)
(0.11332514 -0.0021728731 0.0016950213)
(0.13482224 0.0029141247 0.0023678328)
(0.1735823 0.0041328091 0.0031081484)
(0.19148236 0.0033999162 0.0029803488)
(0.19733598 0.0013356729 0.0025810053)
(0.19735755 -0.0012044536 0.0025809159)
(0.1915503 -0.0032839506 0.0029800395)
(0.17369239 -0.0040447257 0.0031108994)
(0.13494257 -0.0028723601 0.0023683227)
(0.15587739 0.0036661883 0.0031006964)
(0.19623739 0.0048596037 0.0039368157)
(0.21344399 0.0039463383 0.0037305455)
(0.21894227 0.0015385108 0.0032751344)
(0.21896337 -0.0014022472 0.0032749616)
(0.21351106 -0.0038244797 0.0037298773)
(0.19634904 -0.0047643107 0.0039396376)
(0.15600546 -0.0036157839 0.0031010924)
(0.0085304323 5.6755593e-05 3.1599228e-06)
(0.014259693 0.00016482606 9.9914821e-06)
(0.01738378 0.00013687001 1.1175979e-05)
(0.018618995 5.5707282e-05 8.5093134e-06)
(0.01862455 -3.0744939e-05 8.5304859e-06)
(0.017399755 -0.00011705986 1.1195323e-05)
(0.014280687 -0.00015396708 1.0028196e-05)
(0.0085461552 -5.6888544e-05 3.2107214e-06)
(0.027081968 0.00021295225 7.0653985e-05)
(0.042266358 0.00052671869 0.00013465223)
(0.050528417 0.00045204496 0.00014299845)
(0.053779012 0.00018858348 0.00011774893)
(0.053793652 -0.00012024345 0.00011784176)
(0.05057116 -0.00039659303 0.00014315583)
(0.042324855 -0.00049364953 0.00013507864)
(0.027129952 -0.00020952716 7.0857482e-05)
(0.046730071 0.00043404465 0.00021836947)
(0.069508363 0.00092890604 0.00037476624)
(0.081847813 0.00080475652 0.00039093172)
(0.086664722 0.0003375235 0.00032836022)
(0.086686334 -0.00023326499 0.00032851848)
(0.081911711 -0.00071858393 0.00039125229)
(0.069598657 -0.00087434208 0.00037578839)
(0.046809139 -0.00042366793 0.00021868892)
(0.067188334 0.00072634322 0.00045347639)
(0.09591279 0.0013741005 0.00072423553)
(0.1113455 0.001190207 0.00074436213)
(0.11730262 0.00049838011 0.00063397005)
(0.11732922 -0.00036558878 0.00063416768)
(0.1114251 -0.0010785719 0.00074478518)
(0.096028743 -0.0012996908 0.00072596578)
(0.067295886 -0.00070645771 0.0004538592)
(0.088165407 0.001090899 0.00077489111)
(0.12141085 0.0018589071 0.0011668293)
(0.1390197 0.0016006974 0.001183095)
(0.14571761 0.00066669037 0.0010195761)
(0.14574743 -0.00051217622 0.0010197793)
(0.13911 -0.0014687363 0.0011834967)
(0.12154628 -0.0017668918 0.0011692456)
(0.088297822 -0.0010597648 0.00077522778)
(0.10936264 0.0015258371 0.001178889)
(0.1459477 0.0023746497 0.0016852204)
(0.16486581 0.0020264066 0.0016871805)
(0.17193603 0.00083757717 0.0014698846)
(0.17196756 -0.00066731427 0.0014700606)
(0.16496235 -0.001878847 0.0016874171)
(0.14609667 -0.0022675898 0.0016882063)
(0.10951564 -0.0014824667 0.0011790045)
(0.13047149 0.002023967 0.0016575838)
(0.16949778 0.0029080496 0.0022603001)
(0.18887698 0.002456203 0.0022360774)
(0.1959884 0.0010059984 0.0019690551)
(0.19602041 -0.00082502973 0.0019691755)
(0.18897594 -0.0022972037 0.0022360154)
(0.16965472 -0.0027886055 0.0022636957)
(0.13064045 -0.0019681038 0.0016572798)
(0.1511704 0.0025613639 0.002186913)
(0.19208896 0.0034471424 0.0028822859)
(0.21104035 0.0028785739 0.0028122945)
(0.21791169 0.0011671526 0.0025061561)
(0.2179432 -0.00097960389 0.0025061788)
(0.21113857 -0.0027116775 0.002811814)
(0.19224873 -0.00331779 0.00288584)
(0.15135064 -0.0024937299 0.0021864177)
(0.0082806074 4.273148e-05 2.2969556e-06)
(0.013904825 0.00012507917 7.2613414e-06)
(0.017063021 0.00010903052 8.6502447e-06)
(0.018373193 4.9731621e-05 6.9882417e-06)
(0.018381232 -1.5072446e-05 7.0201246e-06)
(0.017085909 -8.1985833e-05 8.6712411e-06)
(0.013934494 -0.00011085589 7.2896031e-06)
(0.0083025001 -4.301824e-05 2.3411801e-06)
(0.026306728 0.00015805823 5.1051833e-05)
(0.041253009 0.00039461991 9.9595247e-05)
(0.049648288 0.00035150777 0.00011078001)
(0.053122592 0.00016125882 9.5412358e-05)
(0.05314382 -6.6310308e-05 9.5554464e-05)
(0.049709636 -0.00027551984 0.00011095192)
(0.041335854 -0.00035078025 9.9951944e-05)
(0.026373788 -0.00015388434 5.1068232e-05)
(0.045421821 0.00031935819 0.00015807653)
(0.06790169 0.00069034919 0.00027848234)
(0.080501435 0.00061712714 0.00030319575)
(0.085688913 0.00028136235 0.00026502246)
(0.085720312 -0.00013648778 0.00026526904)
(0.080593286 -0.00049878143 0.00030353242)
(0.068029749 -0.00061747376 0.00027933937)
(0.045532577 -0.00030611197 0.00015784697)
(0.065356589 0.00053129099 0.00032895501)
(0.093789679 0.0010153342 0.00054018997)
(0.10963455 0.00090408881 0.00057810604)
(0.11610609 0.00040777974 0.00051044337)
(0.11614482 -0.00022329468 0.00051075783)
(0.10974916 -0.0007505433 0.00057851929)
(0.093954312 -0.00091537474 0.00054164929)
(0.065507496 -0.00050543815 0.00032830905)
(0.085838662 0.00079518627 0.00056352293)
(0.11886097 0.0013686547 0.00087352524)
(0.13705454 0.0012086969 0.00092044219)
(0.14440554 0.00053815948 0.00081963541)
(0.14444906 -0.00032361856 0.00081996828)
(0.13718476 -0.0010270294 0.00092077052)
(0.11905346 -0.001244476 0.00087556593)
(0.086024691 -0.00075427017 0.00056227912)
(0.10659008 0.0011106992 0.00085990858)
(0.14307367 0.001745833 0.0012665504)
(0.16276475 0.0015257266 0.0013154703)
(0.17061849 0.00066985541 0.0011807111)
(0.17066464 -0.0004336738 0.0011810137)
(0.16290423 -0.001322516 0.001315533)
(0.14328558 -0.0016008394 0.0012690665)
(0.10680523 -0.0010532743 0.00085785037)
(0.12732417 0.0014741015 0.0012135124)
(0.166414 0.0021391225 0.0017062052)
(0.18676472 0.0018487704 0.0017481394)
(0.19477811 0.00079997836 0.0015815919)
(0.1948251 -0.00054928322 0.0015818206)
(0.186908 -0.0016298519 0.0017477738)
(0.16663748 -0.0019769398 0.0017090636)
(0.12756194 -0.0013997264 0.0012104365)
(0.14774157 0.0018699199 0.00160911)
(0.18891907 0.0025414848 0.0021871085)
(0.20904589 0.0021706633 0.0022056365)
(0.21692142 0.00092557788 0.0020133993)
(0.21696783 -0.00066621404 0.0020134902)
(0.20918846 -0.0019410376 0.0022046984)
(0.18914686 -0.002365549 0.0021900794)
(0.14799535 -0.0017795069 0.001605464)
(0.0080906275 3.3850361e-05 1.8656555e-06)
(0.013630965 0.00010190503 5.517345e-06)
(0.016805536 9.7125316e-05 6.9581433e-06)
(0.018165604 5.1298886e-05 5.986183e-06)
(0.018177354 -2.8185316e-06 6.021873e-06)
(0.016838726 -5.9921454e-05 6.9726298e-06)
(0.013673553 -8.324092e-05 5.5290847e-06)
(0.0081217068 -3.4373503e-05 1.8754199e-06)
(0.025718243 0.00012367835 3.9811604e-05)
(0.040470518 0.00031722882 7.7104256e-05)
(0.048939856 0.00030240088 8.9191717e-05)
(0.052565402 0.00015757041 8.0606499e-05)
(0.05259645 -2.4728526e-05 8.074745e-05)
(0.04902889 -0.00019753883 8.9190115e-05)
(0.040589496 -0.00025894822 7.6909503e-05)
(0.025813614 -0.00011875917 3.9145569e-05)
(0.044429943 0.00024803121 0.00012263583)
(0.066660041 0.00054934617 0.00021633409)
(0.079414378 0.00051864658 0.00024432807)
(0.084855427 0.00026512462 0.00022300492)
(0.084901378 -6.2465433e-05 0.00022322048)
(0.07954773 -0.00035505482 0.00024419356)
(0.06684396 -0.00045172865 0.00021589464)
(0.044587605 -0.00023140239 0.00012054976)
(0.063968875 0.00041011089 0.00025444469)
(0.09214665 0.00080068386 0.00042067722)
(0.10824735 0.00074556038 0.00046632044)
(0.11507508 0.00037288654 0.00042834254)
(0.11513179 -0.00011494676 0.00042857042)
(0.10841377 -0.00053308488 0.00046586163)
(0.092383022 -0.00066602468 0.0004200058)
(0.064183751 -0.00037687477 0.00025043194)
(0.084076233 0.00061084923 0.00043509264)
(0.11688336 0.0010710675 0.00068183105)
(0.1354521 0.00098170205 0.0007432982)
(0.14326086 0.00047993395 0.00068631403)
(0.14332463 -0.00018022173 0.00068648472)
(0.1356412 -0.00073017592 0.00074229635)
(0.11715956 -0.00090304307 0.00068091962)
(0.084341047 -0.00055752774 0.00042881137)
(0.10448871 0.00085021919 0.00066333494)
(0.14083751 0.0013579543 0.00099096208)
(0.16103813 0.0012246415 0.0010636986)
(0.16944815 0.00058522261 0.00098694582)
(0.16951582 -0.000255668 0.00098699855)
(0.16124069 -0.00094327717 0.0010619567)
(0.14114137 -0.0011611022 0.00098978721)
(0.10479477 -0.00077468784 0.00065453828)
(0.12493516 0.0011259406 0.00093610039)
(0.16400407 0.0016565535 0.0013385188)
(0.18501034 0.0014710622 0.001415799)
(0.19367292 0.00068750531 0.0013202597)
(0.19374188 -0.00033823509 0.0013201461)
(0.18521846 -0.0011680848 0.0014131753)
(0.16432424 -0.0014358239 0.0013370964)
(0.12527307 -0.0010274521 0.00092467406)
(0.14513212 0.001427189 0.0012429948)
(0.18642741 0.0019626787 0.0017216382)
(0.20736439 0.0017169075 0.0017899212)
(0.21597324 0.00078535726 0.0016786909)
(0.21604143 -0.00042468779 0.001678337)
(0.20757155 -0.0013993983 0.00178633)
(0.18675355 -0.001722842 0.0017199306)
(0.14549235 -0.0013068898 0.0012298979)
(0.007933493 2.7737264e-05 1.8840455e-06)
(0.013405671 8.7639172e-05 4.4773045e-06)
(0.016589654 9.4349805e-05 5.7995842e-06)
(0.017986299 5.8478084e-05 5.2503853e-06)
(0.018003833 9.9467165e-06 5.2823839e-06)
(0.016639517 -4.2476395e-05 5.7349911e-06)
(0.013471623 -6.2177403e-05 4.066093e-06)
(0.0079807269 -2.8667624e-05 1.6524645e-06)
(0.025234556 0.00010007974 3.4844799e-05)
(0.03982842 0.0002704899 6.332199e-05)
(0.048345294 0.00028419735 7.4441775e-05)
(0.052081837 0.00017164102 7.0013791e-05)
(0.052128134 1.5818828e-05 7.0021427e-05)
(0.048478788 -0.00013776028 7.3657486e-05)
(0.04000656 -0.0001902114 6.0639228e-05)
(0.025377473 -9.4139831e-05 3.1726406e-05)
(0.043618886 0.00020003101 0.0001052109)
(0.065643245 0.00046446747 0.00017763776)
(0.07850087 0.00047529362 0.00020402326)
(0.084128193 0.0002790414 0.00019310714)
(0.08419661 6.7574186e-06 0.0001929527)
(0.078700101 -0.00024690567 0.00020199005)
(0.065916064 -0.00033046429 0.00017252722)
(0.043853902 -0.00017926267 9.7307635e-05)
(0.062839509 0.00032969402 0.00021548468)
(0.090803409 0.00067083163 0.00034524486)
(0.10707924 0.00066786782 0.00038956938)
(0.11416905 0.00038030381 0.00037007923)
(0.11425335 -1.6901123e-05 0.00036963656)
(0.107327 -0.00037137954 0.00038592164)
(0.091152036 -0.00048631364 0.00033753279)
(0.063158199 -0.00028748179 0.00020151263)