/*--------------------------------*- C++ -*----------------------------------*\
  =========                 |
  \\      /  F ield         | OpenFOAM: The Open Source CFD Toolbox
   \\    /   O peration     | Website:  https://openfoam.org
    \\  /    A nd           | Version:  13
     \\/     M anipulation  |
\*---------------------------------------------------------------------------*/
FoamFile
{
    format      ascii;
    class       surfaceScalarField;
    location    "0.1";
    object      alphaPhi.water;
}
// * * * * * * * * * * * * * * * * * * * * * * * * * * * * * * * * * * * * * //

dimensions      [0 3 -1 0 0 0 0];

internalField   nonuniform List<scalar> 
150720
(
0
0
0
0
0
0
0
0
0
0
0
0
0
0
0
0
0
0
0
0
0
0
0
0
0
0
0
0
0
0
0
0
0
0
0
0
0
0
0
0
0
0
0
0
0
0
0
0
0
0
0
0
0
0
0
0
0
0
0
0
0
0
0
0
0
0
0
0
0
0
0
0
0
0
0
0
0
0
0
0
0
0
0
0
0
0
0
0
0
0
0
0
0
0
0
0
0
0
0
0
0
0
0
0
0
0
0
0
0
0
0
0
0
0
0
0
0
0
0
0
0
0
0
0
0
0
0
0
0
0
0
0
0
0
0
0
0
0
0
0
0
0
0
0
0
0
0
0
0
0
0
0
0
0
0
0
0
0
0
0
0
0
0
0
0
0
0
0
0
0
0
0
0
0
0
0
0
0
0
0
0
0
0
0
0
0
0
0
0
0
0
0
0
0
0
0
0
0
0
0
0
0
0
0
0
0
0
0
0
0
0
0
0
0
0
0
0
0
0
0
0
0
0
0
0
0
0
0
0
0
0
0
0
0
0
0
0
0
0
0
0
0
0
0
0
0
0
0
0
0
0
0
0
0
0
0
0
0
0
0
0
0
0
0
0
0
0
0
0
0
0
0
0
0
0
0
0
0
0
0
0
0
0
0
0
0
0
0
0
0
0
0
0
0
0
0
0
0
0
0
0
0
0
0
0
0
0
0
0
0
0
0
0
0
0
0
0
0
0
0
0
0
0
0
0
0
0
0
0
0
0
0
0
0
0
0
0
0
0
0
0
0
0
0
0
0
0
0
0
0
0
0
0
0
0
0
0
0
0
0
0
0
0
0
0
0
0
0
0
0
0
0
0
0
0
0
0
0
0
0
0
0
0
0
0
0
0
0
0
0
0
0
0
0
0
0
0
0
0
0
0
0
0
0
0
0
0
0
0
0
0
0
0
0
0
0
0
0
0
0
0
0
0
0
0
0
0
0
0
0
0
0
0
0
0
0
0
0
0
0
0
0
0
0
0
0
0
0
0
0
0
0
0
0
0
0
0
0
0
0
0
0
0
0
0
0
0
0
0
0
0
0
0
0
0
0
0
0
0
0
0
0
0
0
0
0
0
0
0
0
0
0
0
0
0
0
0
0
0
0
0
0
0
0
0
0
0
0
0
0
0
0
0
0
0
0
0
0
0
0
0
0
0
0
0
0
0
0
0
0
0
0
0
0
0
0
0
0
0
0
0
0
0
0
0
0
0
0
0
0
0
0
0
0
0
0
0
0
0
0
0
0
0
0
0
0
0
0
0
0
0
0
0
0
0
0
0
0
0
0
0
0
0
0
0
0
0
0
0
0
0
0
0
0
0
0
0
0
0
0
0
0
0
0
0
0
0
0
0
0
0
0
0
0
0
0
0
0
0
0
0
0
0
0
0
0
0
0
0
0
0
0
0
0
0
0
0
0
0
0
0
0
0
0
0
0
0
0
0
0
0
0
0
0
0
0
0
0
0
0
0
0
0
0
0
0
0
0
0
0
0
0
0
0
0
0
0
0
0
0
0
0
0
0
0
0
0
0
0
0
0
0
0
0
0
0
0
0
0
0
0
0
0
0
0
0
0
0
0
0
0
0
0
0
0
0
0
0
0
0
0
0
0
0
0
0
0
0
0
0
0
0
0
0
0
0
0
0
0
0
0
0
0
0
0
0
0
0
0
0
0
0
0
0
0
0
0
0
0
0
0
0
0
0
0
0
0
0
0
0
0
0
0
0
0
0
0
0
0
0
0
0
0
0
0
0
0
0
0
0
0
0
0
0
0
0
0
0
0
0
0
0
0
0
0
0
0
0
0
0
0
0
0
0
0
0
0
0
0
0
0
0
0
0
0
0
0
0
0
0
0
0
0
0
0
0
0
0
0
0
0
0
0
0
0
0
0
0
0
0
0
0
0
0
0
0
0
0
0
0
0
0
0
0
0
0
0
0
0
0
0
0
0
0
0
0
0
0
0
0
0
0
0
0
0
0
0
0
0
0
0
0
0
0
0
0
0
0
0
0
0
0
0
0
0
0
0
0
0
0
0
0
0
0
0
0
0
0
0
0
0
0
0
0
0
0
0
0
0
0
0
0
0
0
0
0
0
0
0
0
0
0
0
0
0
0
0
0
0
0
0
0
0
0
0
0
0
0
0
0
0
0
0
0
0
0
0
0
0
0
0
0
0
0
0
0
0
0
0
0
0
0
0
0
0
0
0
0
0
0
0
0
0
0
0
0
0
0
0
0
0
0
0
0
0
0
0
0
0
0
0
0
0
0
0
0
0
0
0
0
0
0
0
0
0
0
0
0
0
0
0
0
0
0
0
0
0
0
0
0
0
0
0
0
0
0
0
0
0
0
0
0
0
0
0
0
0
0
0
0
0
0
0
0
0
0
0
0
0
0
0
0
0
0
0
0
0
0
0
0
0
0
0
0
0
0
0
0
0
0
0
0
0
0
0
0
0
0
0
0
0
0
0
0
0
0
0
0
0
0
0
0
0
0
0
0
0
0
0
0
0
0
0
0
0
0
0
0
0
0
0
0
0
0
0
0
0
0
0
0
0
0
0
0
0
0
0
0
0
0
0
0
0
0
0
0
0
0
0
0
0
0
0
0
0
0
0
0
0
0
0
0
0
0
0
0
0
0
0
0
0
0
0
0
0
0
0
0
0
0
0
0
0
0
0
0
0
0
0
0
0
0
0
0
0
0
0
0
0
0
0
0
0
0
0
0
0
0
0
0
0
0
0
0
0
0
0
0
0
0
0
0
0
0
0
0
0
0
0
0
0
0
0
0
0
0
0
0
0
0
0
0
0
0
0
0
0
0
0
0
0
0
0
0
0
0
0
0
0
0
0
0
0
0
0
0
0
0
0
0
0
0
0
0
0
0
0
0
0
0
0
0
0
0
0
0
0
0
0
0
0
0
0
0
0
0
0
0
0
0
0
0
0
0
0
0
0
0
0
0
0
0
0
0
0
0
0
0
0
0
0
0
0
0
0
0
0
0
0
0
0
0
0
0
0
0
0
0
0
0
0
0
0
0
0
0
0
0
0
0
0
0
0
0
0
0
0
0
0
0
0
0
0
0
0
0
0
0
0
0
0
0
0
0
0
0
0
0
0
0
0
0
0
0
0
0
0
0
0
0
0
0
0
0
0
0
0
0
0
0
0
0
0
0
0
0
0
0
0
0
0
0
0
0
0
0
0
0
0
0
0
0
0
0
0
0
0
0
0
0
0
0
0
0
0
0
0
0
0
0
0
0
0
0
0
0
0
0
0
0
0
0
0
0
0
0
0
0
0
0
0
0
0
0
0
0
0
0
0
0
0
0
0
0
0
0
0
0
0
0
0
0
0
0
0
0
0
0
0
0
0
0
0
0
0
0
0
0
0
0
0
0
0
0
0
0
0
0
0
0
0
0
0
0
0
0
0
0
0
0
0
0
0
0
0
0
0
0
0
0
0
0
0
0
0
0
0
0
0
0
0
0
0
0
0
0
0
0
0
0
0
0
0
0
0
0
0
0
0
0
0
0
0
0
0
0
0
0
0
0
0
0
0
0
0
0
0
0
0
0
0
0
0
0
0
0
0
0
0
0
1.173047e-39
2.1983403e-39
2.2844139e-37
7.0859954e-43
4.8719938e-45
1.457083e-44
1.1730275e-39
1.2647237e-50
6.4392684e-50
4.8719168e-45
5.3083623e-57
1.3638152e-55
1.2647095e-50
-1.743858e-51
1.8809996e-56
1.7438445e-51
-5.5183583e-49
3.4627933e-50
5.1546404e-49
-1.2985034e-43
3.1657847e-45
1.1585449e-43
5.2770747e-40
2.2706717e-38
-1.1341769e-39
1.3270831e-41
5.5433051e-42
2.4635735e-39
6.0430888e-47
1.6592531e-46
5.5312996e-46
1.3284682e-41
1.3995864e-51
8.1061363e-51
1.659802e-46
1.5702353e-57
5.7186628e-56
1.399664e-51
-1.6141188e-50
6.5856772e-55
1.6140549e-50
-4.1053756e-48
1.2465472e-49
3.9992053e-48
-3.0662555e-43
7.9563361e-45
3.018309e-43
7.1861927e-40
2.2766617e-38
1.8778619e-42
5.0271323e-46
1.8448692e-45
5.5409575e-42
6.0763123e-52
2.6783447e-50
1.298194e-49
1.0513323e-45
5.2155723e-55
9.6272864e-54
3.4878314e-50
1.0004241e-60
3.824418e-59
5.7868835e-55
-2.5163008e-50
4.4116386e-54
2.5168165e-50
-5.7666691e-48
2.232597e-49
5.6429012e-48
-2.658687e-43
1.1393059e-44
2.5741961e-43
2.7223142e-42
1.6312848e-39
2.509893e-43
4.9414866e-50
1.8655566e-50
1.844801e-45
1.2003766e-52
2.6934361e-54
1.6204594e-53
1.7921537e-49
6.3310678e-52
5.2964304e-51
2.6021658e-49
1.3873835e-57
4.6880971e-54
6.2846515e-52
-9.4980209e-53
1.3163887e-55
9.9414206e-53
-4.3091919e-49
9.1006247e-51
6.4498331e-49
-8.2971579e-45
1.9728054e-47
2.1006453e-44
2.529211e-46
3.2287714e-42
1.7979973e-46
3.6206503e-54
6.1644841e-57
1.8651901e-50
3.7502459e-56
4.6522041e-52
2.2506507e-51
5.7677273e-50
4.3427085e-52
2.1703588e-51
1.1733364e-49
2.8278699e-57
2.761527e-53
1.1429751e-51
-6.5149364e-55
7.6276068e-56
7.8173021e-55
-4.4694394e-50
1.6120108e-51
7.5651731e-50
-2.473578e-49
3.6823888e-51
2.1188809e-47
5.6906302e-50
2.5258346e-46
3.3367921e-50
1.6252773e-57
3.6059768e-57
9.3403502e-58
8.0638862e-60
5.5770911e-53
6.499999e-53
1.0302213e-50
1.2634629e-53
8.6913542e-54
4.9875979e-51
1.1212273e-57
1.3279926e-55
7.3222012e-53
-2.9473902e-54
1.0035539e-55
3.1440649e-54
-4.0585584e-54
6.9351785e-55
1.6673062e-51
-5.9596286e-53
1.573365e-54
3.7363532e-51
1.7810497e-53
5.6811763e-50
1.7145877e-53
1.1451182e-58
2.9269063e-60
3.5000486e-57
1.3956307e-63
1.2232382e-54
1.1321136e-55
1.7493958e-52
1.8828774e-57
2.5490727e-57
8.1627049e-54
3.495036e-59
3.6821414e-59
1.1737354e-55
-1.028603e-57
1.2945346e-58
1.0101272e-55
-2.4765568e-57
2.6499193e-58
6.4573775e-55
-1.9788505e-56
8.7816225e-58
1.5897988e-54
7.5965815e-57
1.7777555e-53
5.5680724e-57
2.7482569e-61
1.9707573e-59
3.9533082e-64
1.165817e-60
4.3102165e-58
7.7064917e-56
2.5120036e-57
7.2264564e-61
2.8940223e-57
8.3080673e-59
9.3021803e-63
3.6262536e-59
9.0033191e-61
-3.7007539e-61
9.3936307e-59
2.5597906e-60
-1.4704845e-60
2.5866831e-58
7.414143e-60
-1.6157014e-59
8.6507855e-58
2.8191354e-59
7.3304397e-57
2.4677056e-60
2.475176e-58
5.496032e-30
9.9143982e-30
5.8479865e-28
2.0890694e-32
2.56166e-30
7.1317674e-30
6.756088e-28
1.7311493e-27
4.1160059e-27
4.2737583e-25
4.2693851e-27
6.0936418e-26
9.0169111e-24
-2.3577148e-54
2.3369981e-27
3.0969523e-25
-5.011036e-49
2.0671416e-53
1.0143927e-48
-7.7148718e-44
1.7621881e-48
1.9299992e-43
1.551659e-43
3.4877016e-38
-1.2170531e-38
7.957984e-32
3.1811103e-32
9.536845e-30
9.2383311e-34
4.0529365e-32
3.5504368e-34
1.0823251e-29
2.7111323e-29
1.9686359e-31
6.2776563e-27
4.6638575e-29
2.6277013e-30
9.7594081e-26
-3.4598938e-53
9.5940884e-32
3.6180229e-27
-3.3934772e-48
3.2066358e-52
7.3902761e-48
-1.3783376e-43
1.5391636e-47
4.3964764e-43
4.2583215e-43
2.2766207e-38
1.6292963e-45
1.7259412e-32
1.1193489e-32
4.4769412e-30
1.3393151e-35
1.9671837e-34
3.0454115e-35
5.3654202e-32
1.6035712e-33
3.7412691e-35
1.9563736e-31
1.189542e-33
4.9804643e-34
2.6310252e-30
-1.5080768e-52
9.3837096e-36
9.7121055e-32
-3.4850316e-48
1.0793253e-51
9.1298632e-48
-1.5516038e-44
2.0821658e-47
2.7292674e-43
7.9830418e-40
8.1576085e-40
1.7630151e-41
6.0917801e-34
7.2522901e-35
1.6789186e-31
4.7629328e-36
2.7199267e-37
1.8610884e-36
2.0686639e-33
1.0701428e-37
3.0257798e-39
3.7575809e-35
1.1053411e-37
7.5908914e-38
4.9797717e-34
-2.7965717e-45
1.4408667e-39
9.4928028e-36
-1.6164797e-43
2.4585563e-47
1.5884869e-43
-9.0436171e-39
1.2163145e-42
9.0422605e-39
5.8420572e-38
2.1877185e-36
9.3528031e-40
9.3559522e-37
2.3005558e-38
2.6884223e-34
1.831271e-41
9.4261591e-40
8.9054206e-40
7.0086431e-36
2.0287909e-41
8.2621298e-43
3.9496953e-39
1.6180403e-41
1.6285825e-41
7.5898564e-38
-6.6245445e-47
3.152252e-43
1.456732e-39
-4.9330808e-44
1.888151e-45
3.8429765e-44
-9.8422031e-40
7.1706445e-41
2.0496753e-39
6.9396233e-40
2.4892353e-37
2.4063405e-41
7.8331193e-41
1.0038647e-41
2.3005105e-38
1.5194883e-42
1.8990936e-43
3.4658722e-43
9.683354e-40
5.4094391e-45
2.7044807e-46
1.0104426e-42
3.3887832e-45
2.5188898e-45
1.6285788e-41
-8.9425035e-47
9.1543221e-47
3.1861179e-43
-6.034007e-44
2.4633274e-45
8.8952408e-44
-4.4994214e-42
3.6019512e-43
1.4893137e-40
1.8051554e-43
1.2847818e-39
3.8074544e-45
1.1230582e-45
2.0507197e-45
1.0035798e-41
4.5599207e-46
8.5369584e-47
1.4515656e-46
3.4747976e-43
1.012794e-48
1.1444108e-48
3.5366186e-46
9.4925671e-49
7.9204745e-49
2.5181513e-45
-4.0948128e-49
5.0893484e-51
9.2897564e-47
-2.4297592e-45
1.9361415e-47
7.2152376e-45
-7.0331501e-46
1.5789423e-46
5.6825989e-43
5.5546939e-47
1.7975577e-43
9.1333531e-49
4.3444334e-49
1.602788e-45
2.0888138e-48
4.4540849e-46
1.7756376e-49
1.4171339e-46
3.7000497e-48
1.5830162e-49
8.2662724e-47
2.3810479e-48
2.0243044e-53
9.3451047e-49
1.9141972e-50
-3.069861e-50
3.530717e-50
7.1478529e-52
-5.3742985e-49
2.5992241e-47
5.8423115e-49
-2.3321983e-49
1.5376101e-46
3.8290064e-48
5.4023905e-47
5.5812386e-52
1.2899239e-48
4.5664605e-30
8.3105779e-30
6.1596343e-28
9.3107627e-32
1.6556069e-27
2.0371209e-27
1.2143804e-25
9.8927277e-26
1.823705e-25
2.2248121e-23
3.9774666e-24
3.2994658e-23
2.6237679e-21
-2.8994115e-23
8.7022728e-25
6.8242617e-23
0
3.3551641e-22
3.7550921e-20
-4.5856355e-22
3.4202014e-27
4.5856013e-22
8.6016316e-22
1.2079277e-19
-9.0792936e-38
2.8792266e-33
1.682892e-33
8.6903308e-32
2.811721e-35
9.2470704e-29
2.3135136e-30
7.2413349e-27
1.2518381e-27
6.9373556e-30
2.8616674e-25
3.1095348e-26
9.0612176e-28
4.0706345e-23
-1.2895423e-25
4.90418e-29
1.1401798e-24
-1.578047e-24
0
4.8243876e-22
-5.7683765e-24
1.3867012e-23
1.4977996e-21
2.3485791e-26
1.5456053e-21
1.1284963e-26
1.5755249e-30
6.5347773e-30
4.9937387e-28
1.0360431e-31
1.7648475e-32
0
7.2061999e-30
1.8906013e-32
1.0562043e-33
7.1309338e-30
6.6445904e-31
1.4046607e-31
9.0798558e-28
-1.4070088e-30
3.8110517e-33
5.1207931e-29
-1.8426981e-25
0
2.6707895e-25
-1.5922331e-28
4.0355902e-26
6.1008444e-23
1.2742425e-30
2.3325292e-26
1.6382799e-33
1.8304916e-34
1.1521818e-32
2.0928307e-29
4.9061382e-33
3.2893947e-36
0
5.9128987e-33
2.9097015e-36
9.0373932e-38
1.0941257e-33
5.1687115e-35
1.7520119e-35
1.4089979e-31
-1.1628844e-33
1.1413404e-38
5.0328353e-33
-1.6088196e-28
0
1.0802563e-28
-2.3026159e-32
2.5141574e-30
3.7403153e-26
1.0372454e-34
1.2511129e-30
3.0341892e-36
1.0186843e-37
2.9025671e-36
4.4460085e-32
1.1049367e-35
5.5680546e-40
0
1.5858845e-35
4.1764127e-40
1.0029118e-41
9.4458441e-38
6.3155147e-39
3.0827126e-39
1.7587327e-35
-2.1136182e-36
2.2998622e-39
1.0918195e-36
-1.0854168e-32
0
9.7880719e-33
-1.6420993e-36
5.2772066e-34
2.5027771e-30
2.2386959e-38
1.0231317e-34
8.009842e-40
1.4210452e-41
9.8731846e-40
2.9244e-36
7.4208147e-40
8.0430312e-42
0
6.5766846e-39
8.5254917e-44
1.4852076e-45
1.9258376e-41
1.1008357e-42
3.9389234e-43
3.0976982e-39
-3.0693758e-40
8.2896836e-44
4.9740593e-40
-2.0393886e-36
0
2.2748736e-36
-2.8984745e-40
1.5900733e-37
5.2552277e-34
9.6497415e-43
2.3463124e-38
1.3085525e-43
2.605191e-44
5.1008013e-43
9.968124e-40
1.3144147e-43
3.7483186e-44
4.2084213e-45
1.8335948e-41
1.7032718e-46
1.8183297e-45
1.3705119e-43
2.5607973e-46
9.6015611e-47
3.9625389e-43
-1.3486781e-43
1.4917731e-49
2.144809e-43
-5.1971996e-40
0
6.0808907e-40
-5.1806856e-43
5.8986859e-41
1.5842996e-37
2.0005246e-42
1.5321731e-40
1.0456896e-44
1.2530183e-47
1.2537006e-43
5.9669138e-47
3.8769337e-43
1.4184899e-47
4.3048163e-45
1.3347007e-46
3.1298576e-47
9.4853499e-45
2.402342e-46
2.7272845e-50
1.2617592e-46
2.5141687e-48
-1.1779296e-46
8.6664688e-47
1.0240898e-48
-1.7003948e-43
3.3298756e-43
9.4116955e-45
-5.1804167e-44
5.7438311e-41
1.43058e-42
9.8147736e-42
8.003036e-46
3.675023e-43
5.7724426e-34
2.172158e-33
6.1589908e-28
0
1.538142e-28
7.4172717e-31
1.2128332e-25
6.9672572e-25
1.9746702e-24
2.7006056e-22
2.0394351e-23
1.0228348e-22
9.0442466e-21
-2.4350721e-23
8.5737269e-28
1.1260758e-22
-7.7019641e-20
9.0990002e-22
9.6592967e-20
-2.381021e-20
1.3661866e-19
4.9358483e-17
1.9127093e-21
3.1048698e-19
-1.2811352e-23
1.2718201e-34
5.3176668e-34
2.9088527e-32
2.6842001e-35
4.5888117e-31
1.1807547e-31
7.2414405e-27
1.7234551e-26
6.7852752e-29
3.361569e-24
2.6992224e-25
3.2237837e-27
1.8978158e-22
-1.892225e-26
1.8185398e-27
1.0600671e-24
-3.983434e-22
0
2.1257821e-21
-7.5338272e-23
0
2.2302886e-19
0
3.0584662e-21
9.3946578e-26
5.4546435e-30
2.1668038e-26
1.2625027e-24
1.3463229e-25
4.7763394e-32
3.0474105e-31
1.5890247e-29
3.131275e-31
4.5876596e-33
7.4715806e-29
4.9793575e-30
4.0377238e-31
4.1267986e-27
-1.2882649e-29
4.2693489e-31
2.390679e-27
-2.1662783e-25
0
2.0953304e-24
-1.6578964e-27
0
7.3954472e-23
4.4968727e-30
2.3615417e-25
2.6882199e-30
3.9136329e-29
3.1409878e-29
4.1535477e-26
4.9975324e-29
2.5943739e-34
3.8255791e-31
2.5000907e-29
2.6850713e-35
2.2812097e-38
5.9160978e-33
6.6007217e-34
3.8686559e-35
5.4401076e-31
-1.9482352e-32
2.2631978e-33
4.3596891e-29
-8.8616753e-29
0
8.1950269e-29
-8.5993178e-30
0
2.5947808e-26
8.7596002e-32
2.7718968e-27
4.2416324e-33
4.2011413e-33
1.4030254e-33
1.7383979e-29
2.2190522e-32
1.1103363e-35
5.5389907e-35
2.1620373e-31
2.7924479e-38
1.2488128e-38
6.4269822e-36
6.4646809e-38
1.5679577e-39
5.6230084e-35
-5.2720901e-36
1.2310598e-36
1.3358921e-32
-7.8778355e-33
0
9.7790456e-33
-6.597904e-33
0
3.1312657e-30
3.3390932e-34
3.5279635e-30
1.6069137e-36
1.6008523e-37
4.0790429e-37
1.403882e-33
1.3748344e-36
6.0023304e-38
9.7026398e-39
3.7284484e-35
2.5365235e-41
2.8916408e-40
8.4868737e-38
5.2343909e-42
1.5842612e-46
4.6912013e-39
-7.315351e-40
4.8845035e-40
1.2321614e-36
-2.1189459e-36
0
3.0743301e-36
-4.2763162e-37
0
7.9407725e-34
4.4990089e-38
3.3348536e-34
1.0380532e-38
3.1134729e-41
4.7812648e-41
4.0859595e-37
2.0862846e-40
2.2533247e-42
2.6019333e-42
9.7457221e-39
1.3763586e-42
1.4566149e-43
1.0617904e-39
2.18923e-45
1.7927806e-45
1.0666454e-42
-3.3763915e-43
6.7330395e-44
4.8905486e-40
-7.8772894e-40
0
1.0596647e-39
-5.8885521e-41
0
2.6432487e-37
1.7930886e-45
4.5084174e-38
1.4959609e-42
6.7980926e-45
4.5840769e-41
4.0018316e-44
2.1672191e-42
7.7134516e-46
2.5659912e-42
5.1968923e-44
2.0436565e-47
1.5370337e-43
2.6760778e-45
6.2939435e-49
3.8586873e-46
8.6428957e-48
-8.9606542e-47
6.6954464e-44
9.5003962e-46
-3.8557358e-43
5.5168534e-43
1.2845693e-44
-1.5786734e-44
1.3900283e-40
4.0475991e-42
3.1492649e-42
2.9552979e-46
1.048515e-43
1.1836544e-20
2.0407405e-20
1.2540972e-17
3.6323898e-21
0
6.8640856e-26
1.1836597e-20
1.413158e-23
1.5182582e-23
1.8010552e-21
5.4392989e-23
7.7455534e-23
7.6991225e-21
3.1884473e-22
2.506739e-21
5.774157e-19
-9.1670096e-20
6.6012025e-25
1.8858997e-19
-2.2003931e-21
5.0931984e-19
8.5496649e-17
1.8703023e-23
3.2829368e-19
0
9.6447682e-23
0
7.8937571e-20
0
7.7125154e-26
5.6007823e-25
2.1512643e-22
7.5310219e-26
0
2.4515549e-23
1.5306602e-24
1.4982298e-26
3.0680331e-22
1.4602935e-24
6.0779643e-26
3.9772534e-21
-5.1882897e-22
7.2774942e-26
2.6534804e-21
5.4908664e-22
0
1.1381509e-18
1.9717627e-22
2.269305e-20
5.2713482e-24
5.1304682e-27
2.1104568e-28
3.3318503e-24
3.2084473e-24
6.375531e-27
7.8694211e-28
2.6807751e-24
2.385544e-29
2.6977077e-31
8.7870738e-27
5.7321038e-29
4.3285243e-31
2.5283491e-26
2.5497517e-29
1.1993278e-30
6.3442874e-26
-2.082786e-26
9.8445215e-26
8.6494287e-24
-2.5596425e-25
0
5.2947912e-23
9.5244507e-27
4.3794375e-22
1.2687245e-27
9.8755085e-30
1.7782409e-29
4.11993e-26
1.4254157e-28
5.11461e-32
0
1.18446e-27
1.6262521e-33
2.3095384e-35
3.2530433e-31
2.8230779e-33
3.8088872e-35
9.7710414e-31
9.5703437e-32
1.986027e-30
2.7189154e-28
-2.9083456e-29
1.7986763e-29
2.1647912e-25
-4.1681136e-29
0
1.2635579e-26
0
5.5466706e-26
2.2941823e-32
1.1319582e-33
0
1.1968952e-29
4.1451417e-32
4.8852387e-36
0
8.6720993e-32
1.7106267e-37
1.2300889e-39
3.4220984e-35
1.1368124e-36
7.847179e-39
9.3519698e-35
2.5591679e-34
2.5693994e-34
3.6303776e-30
-4.9505571e-33
1.8770291e-33
1.7434098e-29
-2.8165369e-32
0
3.1900714e-30
1.101248e-33
3.3072665e-29
1.0696894e-34
2.0720535e-37
2.0954126e-37
2.7508157e-33
7.693396e-36
1.7736328e-39
0
2.6122964e-35
3.784698e-41
1.5218081e-39
1.0455433e-37
1.9463868e-41
5.3117781e-43
1.255789e-38
-5.9226022e-38
4.4571644e-38
2.5808382e-34
-1.4272298e-36
3.2816066e-37
1.8812991e-33
-1.2049181e-36
0
9.2351216e-34
2.4891368e-37
1.4394007e-33
6.0679625e-38
7.2251033e-41
2.329078e-44
6.1730277e-37
8.017036e-40
1.0209599e-40
5.9097787e-42
6.6776399e-38
6.6723162e-43
1.4770506e-42
2.4135793e-39
6.6527795e-45
1.3311526e-47
2.2461778e-42
-5.6089353e-41
1.0020074e-41
4.5245695e-38
-5.404732e-40
7.399347e-41
3.3045225e-37
-1.571306e-40
0
2.258755e-37
2.0858747e-41
2.939881e-37
1.2454212e-41
1.6917058e-44
8.2980629e-41
1.8057457e-43
2.739173e-42
4.247782e-45
8.3399941e-42
1.5158187e-43
9.8079799e-46
1.1817078e-42
1.7570474e-44
1.0305271e-48
6.3609732e-46
1.2473713e-47
-5.367477e-45
9.9524967e-42
1.3939029e-43
-2.4969853e-43
7.4243466e-41
9.5475823e-43
-3.0299346e-44
1.4160537e-40
3.735926e-42
2.4106328e-41
1.534468e-45
3.6878563e-43
8.4953354e-19
2.236455e-19
7.1934078e-17
1.0691925e-18
0
1.0117315e-19
2.3134855e-17
1.8395349e-23
2.7892805e-23
3.4661048e-21
4.0651334e-23
1.097459e-24
7.777487e-21
-8.2486086e-19
4.3510149e-20
4.0514203e-18
-4.2188175e-18
-1.6310387e-18
1.1973199e-15
-1.1757791e-18
-6.6808981e-20
7.9495681e-17
-1.0349987e-19
4.9903831e-17
-2.0841893e-22
6.8386899e-22
0
3.0904674e-20
-2.2492895e-23
7.5521232e-22
0
1.2760192e-19
2.2995393e-24
8.3227667e-25
1.055799e-21
3.0532035e-24
3.8477536e-24
4.0119545e-22
0
1.1267013e-24
5.4297208e-20
2.3066346e-21
4.1381013e-24
2.5234963e-18
1.4948939e-21
0
9.6427669e-19
0
5.7335466e-20
0
7.9660684e-26
1.0853394e-25
1.7152955e-22
-6.7289774e-23
7.420133e-27
0
1.175199e-23
5.0007228e-27
4.0112475e-29
1.3217894e-24
1.4289803e-26
1.1681849e-28
4.5522081e-24
1.5046807e-27
1.6375572e-30
1.2030262e-24
6.1717132e-27
1.134941e-27
1.2772755e-23
3.081371e-26
0
4.403398e-23
4.8011112e-26
1.3282241e-21
7.7172091e-27
4.6663413e-26
4.6298199e-27
8.5663623e-24
-1.2469201e-27
2.6386686e-30
0
7.6207592e-26
1.5178356e-31
3.9014709e-33
4.2924837e-29
5.2504967e-31
9.347424e-33
1.1741733e-28
1.1272802e-30
2.7662182e-30
3.48827e-28
6.360255e-29
2.5742949e-27
3.4596521e-25
2.8520607e-30
0
6.1233519e-27
0
3.3207406e-25
4.2951248e-31
3.1781898e-29
7.3966636e-31
9.5175327e-27
1.9063974e-30
1.1274203e-33
2.9200445e-33
4.2104067e-29
1.5951989e-35
5.2938029e-37
5.0473214e-33
5.1327141e-35
1.5455721e-36
9.4045639e-33
2.0587849e-32
2.1704208e-33
7.2721223e-30
-6.2637739e-34
3.1752139e-31
3.7442046e-27
4.1611205e-34
0
5.1349646e-30
5.5046969e-33
1.7121414e-28
2.0238063e-33
1.9647843e-34
2.5681768e-34
7.4131057e-31
7.7844572e-34
1.1602922e-37
8.7773248e-37
3.1419117e-33
2.3503725e-39
2.482329e-41
7.4719315e-37
5.7189624e-39
2.8057644e-40
1.5546356e-36
2.2074945e-36
1.5366825e-37
2.0578756e-33
-5.1536389e-37
4.5326963e-35
3.1953363e-31
-2.8560898e-39
0
2.4595437e-33
4.1430815e-37
6.9444014e-33
3.0750144e-37
1.3066583e-37
2.9629252e-38
2.5707937e-34
2.0807014e-37
1.1256483e-41
9.329125e-41
1.0751074e-36
5.7217953e-42
2.7053794e-41
1.8336223e-39
5.0022999e-43
1.7943309e-44
2.880345e-40
2.3274169e-40
2.8055834e-41
1.986496e-37
-5.4654827e-41
8.5053232e-39
4.5652675e-35
3.0241682e-42
0
1.4501504e-37
7.0861778e-41
7.1071893e-37
4.8220071e-41
2.5227653e-41
2.9197819e-38
5.4224723e-41
4.9838947e-40
4.9453644e-44
1.3037589e-40
1.9417475e-42
4.2647965e-44
2.2022357e-41
3.6578361e-43
9.9528319e-47
6.1009664e-44
6.859251e-46
3.9438501e-44
3.7508424e-41
4.7780663e-43
-2.3138303e-44
8.5290206e-39
9.2494608e-41
6.388542e-45
6.0958858e-41
1.3895384e-42
9.5376654e-41
5.7092329e-45
1.3203e-42
0
0
1.8353618e-16
0
5.0493207e-19
7.0150009e-19
4.9239988e-17
0
3.4370403e-21
2.1767165e-19
7.2680701e-20
2.3001302e-20
1.9111717e-17
-6.2852616e-18
2.1017329e-22
1.0400818e-17
-1.6597015e-17
4.5294032e-17
1.6297947e-15
-2.5648118e-18
-4.4499043e-19
3.6192842e-17
-1.6677087e-21
9.0209262e-17
4.8820698e-19
1.162567e-20
0
3.1859366e-20
0
2.0817282e-20
7.1100595e-24
9.3316734e-19
2.3843891e-22
0
2.8727138e-20
4.3511469e-22
0
2.4420846e-20
0
0
4.6918836e-20
6.3010019e-19
7.3248581e-21
1.1834007e-16
1.8841167e-21
0
1.2785388e-18
0
1.5015568e-18
0
5.6434322e-24
4.3353446e-25
1.3850661e-22
-1.482628e-24
1.3799795e-25
4.5321433e-27
2.4452895e-23
6.6106437e-26
2.0218484e-28
1.1580422e-23
4.4225917e-26
6.7402644e-29
8.4557708e-24
5.900927e-27
0
3.8435053e-24
9.6320732e-24
0
7.3279976e-21
2.3891273e-24
2.5248669e-26
1.5538018e-21
0
5.6538681e-21
0
2.901791e-25
4.0011359e-26
1.0610647e-23
-3.4298897e-28
1.9194919e-28
7.5789213e-27
4.3039479e-25
1.3364236e-30
1.1196716e-31
4.3148197e-28
9.7331645e-31
3.4256083e-33
1.8519226e-28
1.8104114e-30
3.2963325e-32
2.5544363e-28
6.4381329e-28
4.5834927e-29
2.0816893e-25
4.8662603e-29
4.0259231e-32
3.1953204e-26
0
3.6013175e-25
2.7492916e-30
1.871649e-27
1.5552954e-29
9.0563522e-26
-1.2001269e-28
1.1962658e-29
6.0697849e-30
1.0745399e-26
1.8620322e-34
1.0228891e-31
7.8510519e-30
6.4309933e-35
3.6636366e-37
1.295256e-32
4.4883775e-32
2.0348439e-33
6.9763774e-30
9.2124605e-30
1.4837218e-29
4.0588893e-27
1.3297091e-32
5.7532566e-32
7.5141811e-30
1.8292034e-32
4.734546e-28
1.3290586e-32
5.3989262e-30
9.4290793e-32
3.4602096e-28
-3.059412e-30
1.4561099e-32
4.8088121e-33
2.4442305e-29
3.3879235e-36
1.3115512e-35
9.3577816e-32
2.1864063e-38
1.3686224e-38
6.3919583e-36
1.0317612e-34
1.1806215e-36
2.5983655e-32
5.461164e-32
2.2653677e-33
3.2493312e-29
3.8453983e-35
5.7263094e-36
9.5298862e-32
1.7918983e-36
2.5276923e-32
1.464096e-36
1.3111901e-34
3.1623236e-35
9.5325053e-32
-9.2541173e-34
1.1516088e-36
1.2474891e-36
4.9387448e-33
1.2085931e-37
1.0254863e-38
7.4675217e-35
1.7225998e-39
9.8583247e-39
1.2001339e-36
4.7401452e-39
6.5608079e-41
1.376504e-36
3.41025e-36
4.1495201e-37
2.3076251e-33
1.3732771e-37
2.5395877e-38
2.9261293e-34
2.5599322e-40
2.6420404e-36
1.4241506e-40
6.4750874e-39
2.9730223e-35
-4.588449e-37
2.3759966e-36
2.6943476e-40
1.2348752e-36
1.9012903e-38
3.790797e-41
1.0374204e-38
1.2831827e-40
9.9349666e-41
3.6145289e-38
4.1625978e-40
3.2039646e-43
2.0253854e-40
2.6488255e-42
5.5932593e-40
4.1482751e-37
8.3953509e-39
1.3949792e-42
2.5683275e-38
2.7403608e-40
3.5450019e-40
2.2822414e-44
4.4289063e-42
0
-1.7729559e-17
1.3036689e-15
3.7417181e-16
1.6505469e-19
0
2.6026517e-17
3.7959747e-19
3.3428667e-22
8.3204072e-22
3.6380544e-18
-1.2054995e-20
9.5777729e-17
4.8810822e-18
-3.2047811e-20
3.0007052e-15
-1.5643942e-19
8.2370283e-17
1.6557781e-15
-8.9273878e-19
-2.6738265e-20
5.6674797e-18
-4.236072e-19
4.524783e-17
0
1.2387033e-20
-1.9242091e-21
4.263275e-18
-2.1971389e-17
3.6127542e-20
0
1.1196437e-18
2.6348654e-22
1.2372553e-21
7.1860871e-20
5.1472119e-23
0
8.5117216e-21
0
-9.4987245e-25
1.4923451e-20
2.1536297e-18
3.223362e-21
1.9273677e-16
0
0
5.195715e-18
0
5.4910254e-18
0
4.2287039e-25
1.1747258e-24
2.6214581e-20
-2.800186e-20
1.210115e-24
2.3223391e-25
1.9386025e-23
1.753647e-23
8.0226803e-26
1.4170822e-21
1.2750223e-25
0
3.3762632e-23
6.7112721e-32
-7.5507372e-31
3.0209191e-24
2.4616474e-23
0
1.0526746e-20
1.2306572e-22
1.007629e-24
3.8543171e-20
6.9844049e-25
3.8494979e-20
0
2.0069806e-27
2.6752608e-27
3.1633521e-23
-1.9852762e-23
2.2413956e-29
4.552442e-29
6.6456982e-25
5.5480785e-28
7.730899e-30
8.0120458e-26
1.9212492e-30
0
1.0728598e-27
1.167517e-31
-5.2335318e-32
5.0184381e-29
3.0334342e-27
3.6259513e-29
4.2101294e-25
6.1711896e-27
1.208958e-28
1.0364712e-24
1.1420407e-30
1.0649498e-24
1.1333087e-29
9.0470648e-30
1.4568174e-29
1.0241815e-25
-9.2027311e-27
1.1503617e-31
1.1058971e-30
1.0798779e-26
1.0294993e-32
2.116413e-34
1.5643764e-29
5.3042469e-34
0
9.6041032e-32
5.6353625e-32
-4.6128797e-35
4.66324e-30
1.6573054e-29
2.5869567e-29
4.3399654e-27
2.3520123e-31
1.7038377e-33
1.4474184e-28
5.9878605e-30
6.4928787e-28
3.5335689e-31
3.2740178e-32
7.0369992e-32
3.6447945e-28
-3.9929464e-30
2.0398507e-34
3.7612493e-33
2.5577024e-29
1.4833043e-34
3.2486165e-34
5.2431663e-32
2.7410985e-37
8.3589721e-38
5.2646935e-35
3.4152857e-34
0
4.4863018e-32
1.0971515e-31
0
3.2623692e-29
5.050375e-34
2.1949137e-33
2.2252062e-31
3.1387673e-34
6.1499126e-30
3.102342e-35
2.8796247e-35
7.9506861e-35
3.2263107e-31
-1.5700737e-31
1.2225198e-36
3.5008887e-36
8.7468876e-33
8.4524928e-36
1.1461802e-36
1.5902287e-33
2.059194e-38
3.4754486e-38
9.0347533e-36
1.1174818e-38
0
4.0292396e-36
8.6704633e-36
0
2.6844925e-33
1.283465e-35
1.9272569e-36
6.962866e-33
3.6870121e-38
3.2937326e-34
6.5195129e-39
2.1137732e-32
1.6893368e-30
-1.7161446e-32
7.1888948e-32
6.7396143e-36
5.6828819e-32
1.261977e-33
8.5136435e-40
2.9964013e-35
5.570094e-37
5.2507628e-42
1.5249305e-37
1.5292445e-39
1.1421002e-42
4.5935156e-40
3.8168839e-42
1.910411e-39
4.0400056e-37
6.9240472e-39
6.3615994e-39
3.8989614e-36
4.280149e-38
4.3194099e-38
1.2583677e-43
4.5287817e-40
0
-1.4670515e-16
2.2613818e-15
6.0789039e-16
5.4482721e-19
0
1.9100348e-17
5.4527514e-19
1.7565207e-23
3.9114645e-22
5.1151515e-18
3.0912809e-18
1.4227123e-16
-4.5500213e-16
6.9162173e-16
1.1935068e-14
-6.4497396e-18
-5.6510455e-17
9.9114178e-16
-1.0066579e-19
-6.8769881e-19
6.6241343e-21
-3.1799391e-20
5.7500123e-18
0
3.2917818e-18
1.855586e-18
4.4469725e-16
-1.1690647e-16
0
-4.3249161e-21
5.8561911e-18
1.3024529e-20
5.1376701e-22
3.409074e-20
1.2487832e-19
1.3209766e-23
4.4935032e-18
1.540907e-17
2.1176515e-19
1.3536353e-15
4.2077533e-20
-1.2138744e-20
1.2764259e-16
-1.2489594e-19
-3.8680213e-20
4.9874108e-17
0
6.9357439e-18
-2.9400909e-20
6.7952528e-21
7.1720817e-21
3.3731824e-17
-3.1863994e-17
2.6477062e-24
0
2.4769179e-21
2.5920546e-23
3.6142302e-25
1.4859695e-21
1.1938053e-24
3.0991226e-27
7.1673695e-23
1.6414515e-21
2.9862339e-23
2.1006349e-19
1.2079295e-25
6.9357396e-33
2.9860336e-23
-2.1447432e-22
2.5793647e-30
7.8744476e-23
1.1665914e-24
1.7298999e-19
-3.5645904e-24
9.2663431e-21
2.7345488e-20
5.1645019e-19
0
1.5862674e-23
2.1684578e-22
1.6831577e-20
3.778839e-28
1.5227315e-25
6.9178566e-24
5.367736e-29
8.668361e-30
4.7583185e-27
9.8228829e-26
2.6233646e-27
2.9763961e-23
7.3932412e-27
4.8569478e-27
1.5089896e-24
2.7031383e-28
1.1391035e-26
2.3089152e-24
2.1942337e-31
2.2324924e-24
-2.3376103e-28
8.700351e-21
9.4395691e-21
3.2940644e-19
-4.8163271e-23
1.4269351e-23
2.494417e-22
2.3621482e-20
6.3262414e-28
2.809606e-25
2.0583468e-23
3.2578665e-30
6.1265064e-30
6.3207802e-28
1.9834707e-29
3.6827502e-31
2.6116909e-27
4.4026976e-29
1.9979459e-31
8.6465194e-27
7.6808268e-30
0
9.6496183e-27
7.5206292e-30
1.0436615e-27
-2.9662217e-32
1.4259338e-21
5.0229133e-22
4.3754591e-20
-7.468621e-24
1.0321584e-24
5.2590105e-24
2.5784731e-21
4.5555324e-29
2.3609987e-26
1.4697167e-24
4.0217263e-33
6.0179596e-31
5.1076339e-29
1.9906731e-33
8.2104283e-35
4.1570135e-31
1.6525268e-31
0
2.8880699e-29
7.9589368e-34
1.3620395e-34
5.8132561e-31
1.8902319e-31
1.5163556e-28
3.7006329e-33
1.2052592e-23
7.2634001e-26
3.5304249e-22
-9.3323941e-27
4.6913951e-27
0
1.0930429e-23
3.1937897e-31
1.6242858e-29
3.2480452e-26
1.4774892e-34
6.0404983e-32
4.8345902e-30
9.5431728e-37
2.2617528e-36
2.3387354e-34
2.8671928e-35
0
3.6818518e-33
4.7713675e-35
8.272793e-36
1.3527357e-32
5.8836498e-35
1.145301e-30
6.3620806e-36
1.8716552e-27
6.7200732e-26
-2.9649409e-30
3.5680584e-27
5.4802312e-30
2.4726682e-27
4.9723209e-29
2.0344906e-33
1.7839393e-29
2.549211e-31
1.4197749e-35
2.7479767e-31
2.5403108e-33
5.2472539e-39
1.4969565e-34
2.4831959e-36
3.3559001e-39
7.6457967e-37
1.093476e-38
5.6013168e-38
1.3249144e-35
2.1990832e-37
5.8206402e-35
8.2309226e-41
6.9230438e-37
0
-4.554695e-17
1.9982511e-15
9.542892e-16
-4.9326187e-23
0
1.3538195e-16
3.6464655e-22
-1.8970254e-24
5.5981519e-24
6.6928626e-19
4.0335669e-18
1.2731813e-16
-4.7546533e-16
1.9554964e-15
1.2255732e-14
-1.5139582e-19
-7.1295287e-17
1.1036632e-15
-2.6681535e-23
-1.6710208e-18
1.5262192e-18
-1.0895974e-19
5.8584038e-18
-1.7629358e-23
0
0
3.5516211e-15
0
2.6235148e-20
0
1.8217021e-17
6.0173893e-20
-4.765006e-24
1.6816118e-22
7.2893347e-19
0
1.1531343e-17
4.674923e-17
4.0792169e-19
3.5483962e-15
5.5425443e-21
-9.3947588e-21
1.1974318e-16
-1.8488849e-19
-1.7079636e-21
5.4387758e-17
-7.1053291e-20
3.6963297e-18
-8.7386617e-20
0
0
8.7740977e-16
-2.5745048e-18
0
0
3.2488029e-18
1.046467e-23
0
9.0426208e-22
1.2703411e-23
4.6059616e-26
1.3012705e-21
9.387221e-21
1.1178988e-22
6.0849766e-19
1.1864522e-25
-1.4594285e-25
2.4492582e-23
-1.6313318e-21
-7.8663184e-26
3.3690663e-24
-2.5206096e-24
2.2649843e-19
-5.1236702e-22
0
0
1.0097967e-17
0
0
-3.4316903e-21
1.7679432e-20
5.5362366e-28
1.7520098e-26
3.4250405e-24
5.6093095e-28
1.0497748e-28
5.4577678e-26
1.0333025e-24
1.7151287e-26
1.4051311e-22
1.8597378e-26
4.268387e-27
5.4767792e-24
-3.7636256e-29
-1.3365279e-28
3.0005351e-24
-1.7493371e-27
1.0267021e-26
-2.8607584e-25
3.7700083e-20
0
1.5975779e-18
0
1.6757294e-22
-1.4053928e-22
1.664134e-19
9.5090648e-27
3.6333064e-24
3.4492999e-22
7.4266449e-29
1.467677e-28
1.0525224e-26
2.4332567e-28
4.7107683e-30
1.9599047e-26
8.5218238e-29
0
1.3167728e-26
-3.2771756e-28
0
1.3182072e-26
8.4488072e-29
3.6864479e-25
-4.6145308e-28
2.1019367e-21
0
5.6694892e-20
-5.4710766e-23
7.0510737e-24
-1.377276e-25
6.0961982e-21
2.2338527e-28
1.3964994e-26
1.7352743e-23
6.4216343e-32
1.2738767e-29
7.7039478e-28
6.1318019e-32
6.6938344e-35
5.1874011e-30
1.7362672e-31
0
2.1810738e-29
-6.1240369e-33
5.331169e-35
1.929825e-30
0
4.5056995e-28
-9.1153113e-33
8.1927527e-24
0
1.4076438e-22
-9.1581326e-26
8.6775661e-27
0
1.0604219e-23
1.0668596e-29
0
1.4700218e-25
1.8292151e-32
1.1213439e-29
8.6956607e-28
4.7643247e-35
3.5343546e-33
3.1464896e-32
2.9351028e-35
6.0644127e-38
4.9737264e-33
4.0552534e-35
9.3414029e-37
2.1134361e-32
0
3.0438133e-30
-9.6909382e-38