/*--------------------------------*- C++ -*----------------------------------*\
  =========                 |
  \\      /  F ield         | OpenFOAM: The Open Source CFD Toolbox
   \\    /   O peration     | Website:  https://openfoam.org
    \\  /    A nd           | Version:  13
     \\/     M anipulation  |
\*---------------------------------------------------------------------------*/
FoamFile
{
    format      ascii;
    class       volScalarField;
    location    "0.1";
    object      alpha.water;
}
// * * * * * * * * * * * * * * * * * * * * * * * * * * * * * * * * * * * * * //

dimensions      [];

internalField   nonuniform List<scalar> 
51200
(
0
0
0
0
0
0
0
0
0
0
0
0
0
0
0
0
0
0
0
0
0
0
0
0
0
0
0
0
0
0
0
0
0
0
0
0
0
0
0
0
0
0
0
0
0
0
0
0
0
0
0
0
0
0
0
0
0
0
0
0
0
0
0
0
0
0
0
0
0
0
0
0
0
0
0
0
0
0
0
0
0
0
0
0
0
0
0
0
0
0
0
0
0
0
0
0
0
0
0
0
0
0
0
0
0
0
0
0
0
0
0
0
0
0
0
0
0
0
0
0
0
0
0
0
0
0
0
0
0
0
0
0
0
0
0
0
0
0
0
0
0
0
0
0
0
0
0
0
0
0
0
0
0
0
0
0
0
0
0
0
0
0
0
0
0
0
0
0
0
0
0
0
0
0
0
0
0
0
0
0
0
0
0
0
0
0
0
0
0
0
0
0
0
0
0
0
0
0
0
0
0
0
0
0
0
0
0
0
0
0
0
0
0
0
0
0
0
0
0
0
0
0
0
0
0
0
0
0
0
0
0
0
0
0
0
0
0
0
0
0
0
0
0
0
0
0
0
0
0
0
0
0
0
0
0
0
0
0
0
0
0
0
0
0
0
0
0
0
0
0
0
0
0
0
0
0
0
0
0
0
0
0
0
0
0
0
0
0
0
0
0
0
0
0
0
0
0
0
0
0
0
0
0
0
0
0
0
0
0
0
0
0
0
0
0
0
0
0
0
0
0
0
0
0
0
0
0
0
0
0
0
0
0
0
0
0
0
0
0
0
0
0
0
0
0
0
0
0
0
0
0
0
0
0
0
0
0
0
0
0
0
0
0
0
0
0
0
0
0
0
0
0
0
0
0
0
0
0
0
0
0
0
0
0
0
0
0
0
0
0
0
0
0
0
0
0
0
0
0
0
0
0
0
0
0
0
0
0
0
0
0
0
0
0
0
0
0
0
0
0
0
0
0
0
0
0
0
0
0
0
0
0
0
0
0
0
0
0
0
0
0
0
0
0
0
0
0
0
0
0
0
0
0
0
0
0
0
0
0
0
0
0
0
0
0
0
0
0
0
0
0
0
0
0
0
0
0
0
0
0
0
0
0
0
0
0
0
0
0
0
0
0
0
0
0
0
0
0
0
0
0
0
0
0
0
0
0
0
0
0
0
0
6.3425182e-28
1.2662708e-45
1.0485615e-67
4.3328297e-82
3.6061007e-79
2.1185026e-55
2.5755506e-37
1.4936183e-28
2.6645692e-30
3.5232218e-49
2.4469209e-46
1.3685498e-51
1.7266486e-50
4.4878251e-46
2.7766956e-50
4.9171015e-29
2.2185146e-46
1.9970504e-40
8.6177195e-46
1.3995714e-50
4.7289692e-44
6.8655685e-46
1.9658255e-34
2.1237533e-30
2.3862056e-46
5.1714369e-59
5.8156795e-41
1.0720091e-47
1.9275164e-46
6.0211515e-48
6.8925037e-36
1.454615e-33
6.3676008e-53
1.7468437e-41
3.1294583e-41
2.4578185e-43
9.0131713e-47
1.7825588e-41
5.1308839e-39
4.4951721e-46
1.8160004e-52
2.5359684e-42
1.3794931e-42
1.4599065e-44
6.7722859e-46
3.468091e-43
9.6614116e-53
3.944878e-47
1.5181457e-52
4.812543e-44
1.6008238e-45
2.4122132e-47
2.4621001e-47
5.7000692e-47
5.7005675e-53
3.0403208e-50
6.0046024e-51
3.1489998e-48
1.9595073e-52
2.6065105e-54
1.2736612e-50
-8.4453697e-68
2.0078747e-51
3.831423e-54
3.903341e-18
1.3671346e-18
7.0827935e-16
1.2574224e-14
4.7137438e-16
1.7876625e-42
3.5747825e-42
1.7017377e-37
2.1199352e-20
7.6527105e-21
3.7155073e-18
5.3349654e-17
1.976625e-18
1.7873913e-42
7.6531823e-42
4.2257595e-37
3.0073759e-21
2.3867332e-23
3.6270527e-25
4.8887676e-24
1.7460671e-29
7.653354e-42
2.0150705e-41
3.4288989e-37
8.1514421e-23
8.4169282e-25
1.200974e-30
1.5152782e-29
6.3386101e-37
5.4343759e-39
1.629318e-37
1.4039756e-27
1.0013513e-25
2.4261544e-27
1.6352262e-33
2.8091866e-33
1.3936321e-41
5.7449636e-37
7.4665078e-31
1.2736302e-28
4.7097425e-32
1.5606133e-37
3.0881448e-40
7.7883878e-37
1.8925646e-40
1.8091886e-35
4.7632599e-32
4.9635765e-31
4.481753e-37
8.4257569e-42
2.2360742e-42
2.1109805e-42
3.1940418e-43
1.3849865e-36
1.5103781e-34
1.8628799e-42
2.6360391e-44
1.4143109e-47
1.4913915e-38
5.9639276e-43
1.3447968e-43
4.4358769e-39
1.713855e-49
5.4131344e-43
3.9799415e-18
5.0018252e-16
3.8864981e-14
8.0733794e-12
2.0824301e-13
7.5112002e-11
6.402542e-32
4.8099978e-10
1.9739155e-22
1.0427785e-17
1.7855896e-16
2.4554297e-14
1.2573556e-15
3.0385577e-13
9.5084924e-13
2.3029509e-12
3.4257675e-19
4.6427213e-21
3.9805202e-25
4.4908305e-23
3.9586219e-24
1.0281042e-16
3.8603271e-14
1.9766694e-28
1.0376629e-20
2.2299573e-24
6.0884657e-29
7.285037e-27
1.2813697e-27
5.5607859e-20
2.4381751e-17
7.0653564e-28
1.7138287e-23
5.4320169e-27
7.5960598e-33
1.1798762e-30
6.740529e-29
9.1015998e-25
7.6214021e-31
8.7347408e-30
3.0348045e-31
1.2290408e-30
6.3721826e-35
2.0707685e-34
7.3193154e-32
1.0307014e-28
4.788767e-32
2.3571977e-32
6.7431917e-35
5.0758826e-33
2.5586516e-35
5.1137254e-38
5.8851999e-38
3.3645855e-32
1.7629268e-34
4.380915e-32
8.2858704e-37
5.7666961e-38
2.3329673e-36
3.9871202e-40
2.864389e-39
2.9022207e-35
1.1767992e-37
5.11018e-33
6.7379656e-23
8.6989735e-22
4.9956123e-13
2.8086182e-11
1.3892974e-16
2.1977306e-10
9.3435685e-08
1.7045947e-09
6.7379656e-23
6.7379656e-23
2.2421106e-15
1.4496569e-13
1.3700827e-16
2.5163709e-12
1.7021095e-10
4.7324791e-12
1.2582243e-15
4.950819e-21
3.6879115e-24
1.9849031e-22
1.1606441e-18
8.7957783e-16
6.5987368e-14
1.3987657e-16
4.1298668e-17
8.6109492e-21
1.3007891e-26
2.7997789e-26
1.2700056e-20
1.8336267e-20
1.9226515e-17
1.4129836e-18
1.2655284e-20
1.2331463e-22
3.6516089e-28
7.5802903e-30
2.4901681e-24
1.2457153e-24
7.6187212e-22
1.4298608e-21
1.9020386e-28
1.0112803e-26
2.8104912e-29
1.007989e-32
9.5073547e-32
6.4025179e-28
1.8538054e-25
1.6466316e-29
5.2532708e-32
1.2620951e-33
2.3480172e-31
3.8439208e-35
3.0427253e-35
7.0973578e-32
7.0336933e-29
3.8506438e-33
6.3446242e-35
1.7246315e-36
1.9150637e-37
4.112738e-38
1.480138e-37
9.7256681e-35
3.2761718e-32
6.3276714e-34
1.1402796e-08
1.0804692e-19
4.3169428e-12
2.4107104e-11
9.2059146e-10
8.2747488e-15
3.2135992e-07
3.4090618e-11
1.8780558e-10
4.5773952e-14
1.609799e-14
2.9264618e-13
2.2521112e-12
5.9563079e-15
1.6686997e-09
3.4084014e-11
1.3483722e-15
1.3758905e-15
3.2437367e-18
6.7962951e-18
1.1004781e-19
5.9569492e-15
3.6418662e-14
3.5970393e-13
4.1736512e-17
3.9078187e-19
8.0593106e-26
1.9051869e-24
1.0446416e-19
8.043678e-17
1.1222093e-17
2.5397178e-17
8.3641344e-21
3.0988993e-23
4.4428954e-29
1.8291447e-28
9.8244217e-22
1.3699745e-21
1.1893011e-21
1.4289e-20
9.810621e-25
9.143678e-27
3.8192547e-29
1.9063031e-33
2.1780194e-28
1.3544599e-28
2.9988568e-25
3.0694571e-27
3.237442e-32
1.5010759e-29
9.5245036e-31
2.0598972e-36
9.987086e-32
7.3127779e-31
6.8183335e-29
5.1453997e-32
5.0960935e-33
8.6156416e-35
1.305072e-34
4.0101975e-38
2.8589965e-37
2.0693191e-34
4.4218016e-32
2.2487993e-34
3.772104e-07
3.8344079e-08
7.5899277e-12
3.7157326e-13
1.1382127e-08
1.9416707e-06
3.5057698e-07
3.5670821e-07
9.0663396e-11
9.9731822e-11
6.5739392e-13
3.7154645e-13
6.1050934e-11
1.3773332e-09
1.42694e-09
8.3832724e-11
2.4965609e-13
6.8563505e-15
5.4417602e-16
2.2284235e-15
2.4118214e-19
1.8507411e-16
3.1332083e-14
1.1932948e-12
6.2328161e-15
2.8458095e-17
5.4622118e-24
6.7835852e-24
1.7299875e-19
1.9438037e-16
4.8607729e-18
3.1179776e-16
3.7964036e-18
1.1180727e-20
1.2121463e-27
7.2142383e-28
3.3792747e-21
1.5523416e-18
2.399714e-21
7.8541414e-20
8.3854853e-26
2.9312444e-28
9.8773745e-31
1.8750142e-31
2.972427e-25
7.8892405e-26
7.0112096e-25
5.2806524e-28
8.2233702e-30
2.9000653e-32
6.9599765e-31
5.9948344e-35
1.5785221e-32
3.1615015e-30
6.232398e-30
1.5111405e-30
5.5028552e-32
1.4664487e-33
5.4536073e-33
3.2588928e-37
2.135017e-35
9.0613062e-33
1.5011112e-32
7.4647555e-34
4.8788333e-07
2.1560125e-07
7.5620641e-10
1.5627396e-08
5.2523163e-11
5.5623085e-06
2.348987e-07
6.5569889e-07
7.2955456e-11
1.2533059e-09
2.0168814e-11
2.7655784e-11
5.2523756e-11
8.8578909e-08
1.7389644e-09
2.0115467e-09
2.144344e-13
3.334142e-16
4.6022876e-15
4.1224125e-15
2.7811695e-15
1.137416e-16
7.4294054e-13
4.8081229e-12
1.1193182e-14
3.0652625e-16
4.1744278e-21
9.5940336e-24
1.5427069e-19
6.3985852e-18
1.0339572e-20
2.4690735e-16
7.4148642e-17
6.323737e-18
3.553365e-21
2.9872458e-27
3.3107424e-21
1.9132494e-18
2.8129894e-21
2.9058514e-19
2.2760688e-19
1.1596447e-20
4.0797679e-23
2.4973652e-28
6.9986186e-24
1.2985867e-20
2.8912559e-23
1.8577004e-27
8.2153171e-27
1.2973128e-28
1.1843356e-26
2.413623e-28
1.0531396e-31
3.0457525e-28
6.5336801e-26
8.0954584e-31
9.7869629e-30
5.4845118e-32
5.548318e-33
7.2358195e-30
1.1577661e-33
1.0495515e-31
3.5086648e-32
2.4091796e-33
3.0441678e-06
1.4771049e-07
9.6579792e-13
1.9120803e-07
1.6644662e-06
5.7802571e-06
3.3188213e-08
5.2381154e-07
5.378907e-14
1.4391998e-09
8.9157155e-11
4.0340493e-12
3.9744008e-18
2.3623456e-07
1.9255471e-09
9.2622055e-09
3.1528628e-17
7.7296393e-15
9.2361085e-13
1.9184955e-14
2.4648138e-20
3.9744024e-18
3.6405075e-11
3.2014281e-11
1.0640494e-19
1.1196906e-20
4.2044766e-21
1.8277359e-19
2.1283831e-20
3.6552939e-18
7.708634e-20
2.7606576e-19
3.9449835e-22
2.765483e-23
9.8712264e-24
1.3148019e-23
2.4790475e-21
2.0335207e-18
1.3468444e-22
4.2866524e-19
3.9943612e-25
4.0027618e-26
9.5819376e-24
1.2594486e-26
1.4879827e-23
1.4226561e-20
8.3036383e-23
2.1538262e-21
2.822137e-26
2.0143513e-26
3.2411195e-25
1.824437e-27
7.7888976e-28
1.5755754e-25
2.0111441e-24
5.2659668e-29
6.2154239e-22
1.1982721e-23
5.1587066e-27
3.0359294e-29
5.0425901e-32
1.0139725e-29
7.4781823e-28
2.3957773e-32
1.8518251e-05
7.6502584e-08
1.9144283e-14
4.5306892e-07
2.8423039e-05
3.4037839e-06
1.3684695e-11
4.2310093e-08
4.4960484e-07
5.4257168e-09
5.6746024e-11
2.8586683e-09
8.7798279e-07
1.7766581e-07
5.1350955e-08
1.7170796e-08
1.9515204e-14
1.3609814e-14
1.1795328e-12
9.9632713e-17
5.5802092e-16
3.0775857e-16
1.0428033e-15
1.7614493e-10
2.8057423e-10
1.1303269e-11
3.7616259e-15
3.0544292e-19
1.3871911e-18
6.0584389e-16
1.475155e-15
5.7586959e-19
1.4765566e-10
7.3399545e-12
4.9992381e-15
2.2433936e-22
1.2268843e-22
3.374506e-18
4.1195248e-18
6.2040814e-19
2.4370815e-11
7.9117386e-13
3.0353229e-16
8.8610633e-24
1.954698e-25
1.3204939e-20
8.5571974e-23
6.3628475e-20
2.1619331e-13
4.9856232e-15
7.049123e-18
6.7944872e-22
1.3646758e-27
6.3163193e-25
4.7784388e-24
4.2230931e-22
6.3393328e-22
2.8202707e-19
3.0874585e-21
4.8644892e-23
2.5302168e-26
1.0334445e-28
4.7283323e-27
3.1775197e-30
1.8638345e-05
3.3913531e-07
1.8413889e-14
4.3099545e-07
3.7679779e-05
3.4143711e-06
1.1008668e-11
8.0556331e-12
5.1072185e-06
2.8212348e-08
1.0066395e-14
1.3249456e-08
2.7778858e-06
1.4441574e-07
8.1092873e-08
8.5785432e-09
1.3922219e-06
1.7842839e-09
6.5526535e-13
2.9786439e-13
9.6113299e-15
1.2819456e-15
1.6462923e-15
3.2423964e-10
1.0455005e-08
1.1797412e-11
1.6853251e-15
2.843122e-18
1.348391e-17
1.9505803e-15
1.8140368e-15
5.702128e-18
8.8202716e-10
6.62839e-11
1.2527588e-13
3.0835395e-19
4.8360601e-21
6.5761236e-18
6.5569126e-18
1.5579467e-16
3.3734575e-11
2.4005028e-12
4.4978519e-15
4.577662e-20
1.0971456e-23
1.0976448e-20
6.6609569e-22
1.8907458e-19
1.2686235e-13
4.9625843e-15
3.4372194e-17
1.6734126e-19
1.2421866e-24
1.1710577e-24
7.4250565e-24
1.148228e-21
1.2191092e-17
1.4087021e-18
1.0977905e-20
8.7244699e-21
4.7295368e-23
3.9349508e-29
5.2645473e-27
1.7023947e-26
5.9614237e-06
1.2617908e-06
1.0131796e-09
1.9106595e-07
3.7679779e-05
5.8927117e-06
4.2305027e-06
1.1749628e-05
1.4446515e-05
1.0066395e-14
2.4360393e-15
1.1178078e-08
4.9623245e-06
2.180869e-07
4.2434583e-15
2.1793757e-13
9.2428809e-07
6.9163093e-09
2.422784e-15
9.3330377e-11
1.411189e-14
3.1009513e-15
4.238113e-15
2.4161881e-15
1.44193e-11
1.4409814e-11
2.4170615e-15
4.201927e-14
1.081877e-16
1.0021358e-13
7.9975754e-15
1.0786181e-17
2.0926093e-09
1.3802854e-10
2.0187611e-13
2.7812708e-18
4.0339388e-20
5.7936946e-21
8.7357401e-18
4.2917493e-15
5.8468989e-11
3.7626838e-12
1.5749933e-14
2.1040327e-18
2.2118678e-21
5.7890145e-21
1.1845402e-21
1.6058462e-17
3.3966002e-14
5.1712085e-16
2.3905503e-16
4.5997433e-18
2.255813e-22
1.2365232e-23
1.9232617e-23
1.9837501e-20
2.7938399e-17
1.1373016e-18
1.7718318e-19
1.4218686e-19
6.9844861e-22
2.3232691e-26
6.5325092e-27
1.6382158e-27
1.9839572e-06
1.2005206e-06
4.8046939e-09
1.5518556e-09
3.7679779e-05
6.9312773e-06
9.5793403e-06
4.9081329e-05
1.1048233e-05
2.4390859e-15
2.4288771e-15
2.4390859e-15
2.4628401e-05
6.1995533e-07
5.6108037e-15
3.5300508e-06
8.4060809e-08
6.71763e-09
2.4258305e-15
1.5344902e-10
6.7830594e-07
5.6131075e-15
1.2689692e-15
4.1372869e-14
2.0616017e-11
2.6786963e-11
1.2116338e-14
1.7774e-12
2.6273644e-14
5.9585421e-13
1.2575008e-15
1.6529718e-17
2.2096666e-09
1.5181215e-10
1.6358219e-13
1.7051513e-15
1.2765525e-16
3.2949642e-15
1.9248777e-16
2.7879773e-16
3.0489199e-11
3.6900475e-12
4.0286153e-14
6.6159396e-18
1.2978756e-19
9.0389958e-19
1.6819782e-20
1.6599157e-16
1.4983866e-18
2.0399531e-19
1.0461314e-15
1.6709851e-17
1.5337272e-22
4.2739114e-23
8.173638e-23
3.838665e-17
1.6161886e-17
4.1684478e-19
8.4175799e-19
7.8123828e-19
4.3420203e-21
5.7804851e-25
6.5749921e-27
8.5959564e-19
1.8959227e-06
4.2658269e-07
8.2461433e-10
6.9742567e-14
3.5716533e-05
6.4847129e-06
1.168875e-05
4.9210372e-05
3.3385643e-06
2.1224859e-13
9.7074198e-11
3.7349658e-14
3.4548351e-05
1.7180222e-06
4.9035534e-11
4.8207175e-05
9.5272319e-08
1.1996547e-09
2.4288771e-15
8.3166534e-15
4.5246445e-06
1.253657e-07
4.0548124e-09
1.1674509e-05
3.3743972e-11
3.4962271e-11
1.4637674e-13
1.7665591e-11
2.534412e-13
4.9769198e-14
3.7580629e-11
3.8188998e-13
1.8557318e-09
1.5076003e-10
1.8130412e-13
1.8872559e-13
1.2937256e-15
4.948981e-14
6.2571044e-19
5.4096752e-17
1.9153923e-12
3.4891694e-12
1.0431245e-13
5.0247076e-17
4.6949171e-18
5.5863406e-17
6.2443039e-19
7.1775312e-19
2.0399531e-19
1.95543e-19
2.8223485e-15
3.2176186e-17
3.9196663e-21
1.854617e-20
1.0513788e-19
5.1646512e-18
2.5187571e-17
1.9382309e-19
2.6196054e-18
1.6182182e-18
2.9102535e-21
8.0958885e-23
6.3765546e-22
1.136386e-17
2.1612767e-06
1.113684e-08
2.9936823e-11
1.7876477e-07
8.3486934e-06
2.729631e-06
1.9407516e-05
4.7318312e-05
1.1788476e-07
4.6995222e-09
2.9256735e-11
5.3739481e-12
3.4540526e-05
2.2242278e-06
2.1214769e-10
4.8203418e-05
2.4136331e-07
3.7601033e-11
1.5836192e-14
1.3291315e-14
1.914398e-05
1.4074582e-06
3.3055682e-08
4.4451492e-05
2.7597897e-11
2.7597979e-11
4.9063239e-13
1.2270269e-14
7.323398e-07
2.5612417e-08
8.5903475e-14
6.4354976e-06
1.0916325e-09
1.2624977e-10
2.2418419e-13
9.8936704e-13
2.0491767e-13
1.2426165e-11
8.5264822e-14
8.6063194e-14
5.7119427e-16
3.3256936e-12
1.3082371e-13
1.7693949e-14
3.7406754e-16
2.7592598e-14
2.4876761e-15
2.4790342e-15
5.6515211e-16
1.9454189e-19
3.0209021e-15
6.2585214e-17
3.7213252e-19
5.4619316e-17
3.2689727e-17
2.7606051e-17
3.4359165e-17
1.9376448e-19
2.8647302e-18
1.3980933e-18
4.0021567e-21
6.6168579e-21
1.2284581e-20
2.9199881e-20
2.4252558e-06
5.2908296e-10
2.010695e-09
8.7392785e-08
8.7369642e-08
8.6698945e-07
1.8054776e-05
1.2506881e-05
5.4836243e-08
1.5210346e-08
2.7551103e-09
1.3291769e-14
3.086392e-05
3.1274556e-06
2.5491923e-07
3.4134982e-05
6.1261006e-07
4.6489113e-11
1.950456e-11
1.2270269e-14
2.7965128e-05
1.9637254e-06
1.2787708e-06
3.8830229e-05
8.9317987e-09
3.0664981e-11
5.6966974e-13
1.2162836e-14
2.1945803e-06
4.0157174e-08
9.8829706e-08
5.1045212e-06
3.8230747e-10
8.072521e-11
2.9554235e-13
3.1986928e-12
1.2295187e-12
5.9462414e-12
8.5903475e-14
1.9528829e-09
6.9547812e-14
3.2631422e-12
1.1840124e-13
2.7556117e-13
4.5113217e-15
4.0005615e-12
8.5953157e-13
9.9116067e-12
1.2312612e-15
5.0264476e-16
3.8449406e-15
1.3425294e-14
1.4624571e-15
2.7220994e-13
8.3223186e-14
4.1960642e-14
3.0434841e-17
2.6381878e-19
2.6650475e-17
5.1839367e-16
1.4191661e-16
5.7704579e-16
3.3398607e-16
5.3520537e-16
1.9055007e-06
5.0062656e-10
3.3831909e-08
2.0238516e-09
8.2688184e-06
8.7238376e-07
4.2053678e-06
3.3344983e-06
5.7320026e-08
6.930171e-08
1.2118533e-07
1.3618789e-14
7.3788092e-06
3.8470056e-06
2.0961785e-06
9.7867492e-06
2.9629172e-07
6.9116882e-10
1.8854665e-10
1.2162836e-14
2.0330086e-05
3.2734952e-06
1.259178e-06
3.1610955e-05
4.7554623e-09
1.189909e-11
3.00022e-13
1.090909e-14
6.7747516e-07
3.8958766e-07
1.0458542e-07
8.071157e-12
5.2796315e-11
3.139674e-11
2.0461425e-13
2.4633488e-12
1.3559619e-14
4.4078845e-09
6.2368975e-10
2.8576021e-12
2.6768807e-13
1.8945872e-12
6.8211848e-14
2.5372695e-13
6.6086671e-13
2.1972625e-12
3.2571669e-12
2.852492e-12
1.1751886e-15
6.1339771e-16
3.3658553e-15
2.3648893e-14
9.7487283e-15
1.8631634e-13
1.1187633e-13
4.4912189e-14
2.2368181e-17
1.3681192e-18
9.6586582e-17
1.3743492e-15
1.0528639e-16
4.9476172e-16
2.9112939e-16
1.2974361e-15
9.9732627e-07
1.494174e-10
6.9406544e-09
1.7903938e-12
2.8995947e-05
1.244447e-06
2.8182594e-07
3.3346884e-06
4.3648489e-07
3.371936e-08
3.0311881e-08
2.7693651e-13
7.704893e-06
2.9037046e-06
3.3217903e-06
3.3183656e-06
2.8461695e-08
3.8221163e-09
9.6981468e-15
1.2365047e-14
1.7950217e-05
4.2511853e-06
3.3575854e-07
2.5435695e-05
1.2291787e-09
9.6981468e-15
6.1365939e-16
5.286454e-15
1.2099568e-06
1.6671819e-06
6.2102779e-07
7.1881491e-06
5.6840509e-12
4.7603649e-13
1.6367818e-16
5.2148897e-16
1.2647643e-15
7.0505712e-08
2.110957e-08
6.7317929e-07
5.4756508e-13
1.7491852e-18
9.0959372e-18
6.6804137e-17
2.3209045e-17
6.4881918e-16
2.8621525e-16
5.5928364e-15
9.7489303e-16
6.3767197e-21
2.9252962e-19
4.2309874e-18
3.8635386e-19
3.171805e-16
1.1515904e-18
1.0590645e-14
7.8481438e-19
5.1698874e-22
4.3402464e-21
1.3409956e-19
2.1354293e-20
1.4004656e-20
1.4593986e-20
8.27972e-16
7.1304923e-07
1.4939719e-10
1.5153306e-10
0.0003384334
5.7579479e-05
2.8182594e-07
2.8182594e-07
2.2162977e-06
1.3330853e-06
2.3563511e-09
1.5363972e-10
0.00034623525
2.1658981e-05
6.4120586e-07
1.1623077e-06
4.9112164e-06
6.8344415e-10
5.0290516e-10
6.3293768e-07
0.00031633011
2.7666479e-05
2.0051899e-06
3.3400917e-07
2.6423889e-05
3.6167716e-13
3.0174251e-14
8.8430805e-06
0.00021391343
3.7389883e-05
1.987161e-08
5.2599858e-07
2.5647147e-05
3.8827848e-13
2.7839172e-13
5.7675901e-06
9.9530274e-05
2.0303857e-05
8.5645486e-11
2.3907648e-11
4.817172e-06
4.9467181e-14
4.1727173e-15
4.6839724e-06
8.9500595e-05
1.0092382e-05
9.2666273e-15
8.2014322e-15
1.28109e-14
5.1884982e-16
9.3202572e-15
2.7733137e-06
6.761023e-05
4.7383004e-06
7.6889565e-16
3.0040811e-16
5.3599898e-15
4.8880932e-19
5.8406644e-19
3.3661802e-13
1.1276431e-05
4.7616007e-06
7.605296e-15
2.2019167e-14
4.1703734e-16
1.4818787e-07
1.6112142e-10
8.9199755e-05
0.00039019416
0.00020522707
2.2030629e-05
2.8182594e-07
1.3012789e-06
1.3009636e-06
1.7282187e-10
9.2168013e-05
0.00039019416
0.00026442651
1.8877916e-05
2.8675403e-07
6.5853731e-06
2.4669846e-08
1.7394502e-10
0.000122037
0.0003901178
0.00029216613
1.4037006e-05
3.0163194e-07
2.6425131e-05
7.7501647e-08
7.0757525e-07
0.00010757858
0.00038998378
0.00018758368
5.4988482e-05
8.8575115e-07
2.6422447e-05
5.350679e-13
2.9306012e-12
0.00010277639
0.00038972205
4.9567847e-05
5.584353e-05
4.9819914e-06
7.7175813e-06
6.0885948e-09
1.3454283e-09
6.6010473e-05
0.00038917058
1.0593122e-05
2.1346111e-05
2.3969478e-06
9.8119435e-12
3.8091523e-13
1.293449e-11
6.5175562e-05
0.00038838718
1.1195338e-06
7.9564015e-08
9.822086e-12
1.7108623e-14
4.4091053e-15
9.0285806e-12
6.4895608e-05
0.00038720768
3.8731735e-06
2.9609007e-06
1.7688979e-11
4.2042639e-14
9.6259916e-09
2.7206455e-05
0.00011853838
5.3485298e-05
6.290936e-05
9.185653e-05
2.2265692e-05
6.7958742e-07
2.0439688e-07
8.8288088e-06
0.00019912154
5.0079585e-05
3.2443311e-05
4.5775772e-05
1.2142235e-05
8.716486e-06
8.2663759e-08
2.9121154e-05
0.00012420689
4.6450519e-05
2.4082364e-05
3.0710748e-05
7.4168986e-06
2.5669094e-05
6.4097724e-08
1.1403026e-05
5.1012286e-05
4.1555958e-05
2.3070473e-05
3.2090375e-05
1.3479909e-05
2.550548e-05
2.9967516e-12
1.3835832e-05
6.2450282e-05
4.1315327e-05
1.5215306e-05
6.9531142e-05
2.2969781e-05
6.6564649e-06
3.6218083e-07
3.1459294e-05
0.00010947069
3.9115641e-05
7.1565089e-06
9.4762354e-05
1.9432752e-05
9.2781957e-08
1.0657401e-07
2.5813326e-05
0.00010943424
4.0044414e-05
1.2595627e-06
6.7021191e-05
5.2633017e-05
1.0529177e-05
3.1022603e-07
2.148018e-05
0.00010924911
7.8050418e-05
2.3766477e-06
6.8194865e-05
4.3977508e-05
1.940596e-06
2.1879398e-06
8.5875297e-05
0.00019911834
5.3233251e-05
6.6468903e-05
9.5092329e-05
2.3098673e-05
9.7868264e-08
7.7198226e-06
0.00016254172
0.00019912154
5.0009007e-05
4.8795376e-05
3.7255969e-05
1.451839e-05
8.4123078e-06
5.5436633e-09
4.9748458e-05
0.00011439258
3.2769977e-05
6.2005044e-05
5.3559049e-05
1.1420139e-05
1.5452456e-05
1.5602641e-05
4.0490704e-05
3.1982212e-05
3.2637958e-05
6.8267233e-05
0.00031411254
3.7741357e-05
2.1308007e-05
3.5804889e-05
9.8155955e-05
4.7890952e-05
3.2221232e-05
0.00011018484
0.00034077848
0.00011894557
1.1665478e-05
1.0985129e-05
9.8209864e-05
0.00010943424
3.2497085e-05
9.6950523e-05
0.00034077848
0.00011082498
1.1510707e-05
1.0965041e-05
4.2281375e-06
0.00010946769
3.798014e-05
3.3609419e-05
0.00015878791
4.3929365e-05
7.4247958e-06
2.8675287e-06
4.5002532e-06
8.6607225e-05
7.38884e-05
7.0294812e-05
4.4486875e-05
2.3278061e-05
1.5662146e-07
5.5676309e-06
3.8824517e-05
3.8988399e-05
0.0031121119
0.015629878
2.5796988e-05
6.3326985e-06
1.3418519e-06
2.2826243e-05
0.00011045643
5.0379763e-05
0.003577158
0.019611841
3.1083287e-07
3.0283843e-05
4.83652e-06
1.9423921e-05
0.0001105168
3.9791708e-05
0.00069155538
0.017201368
5.9114683e-07
3.891194e-05
6.3045039e-06
3.469499e-05
0.0001103454
2.1732189e-05
0.00016815646
0.013671274
1.062672e-06
4.0352929e-05
1.8916824e-05
3.9145673e-05
9.2476023e-05
2.1296203e-05
2.1732189e-05
0.011681229
2.2883676e-06
2.5014123e-05
7.8475788e-06
1.3789046e-05
2.2823673e-05
2.0135812e-05
0.00014568377
0.0094871397
0.00026176578
3.433065e-06
2.1113098e-06
6.8730698e-06
2.1555201e-06
2.1558668e-06
2.3839401e-05
0.0053939127
0.0004448241
7.1169034e-07
6.7445038e-07
2.6618094e-07
8.2631952e-06
8.6187644e-06
2.1012468e-05
0.0010227846
0.00036460125
2.3904607e-06
4.3149436e-11
1.250898e-06
1.2280263e-06
0.0072116084
0.080035171
0.085871704
1.7748331e-07
9.8133936e-07
8.477742e-07
8.2439357e-06
1.3484049e-06
0.010877534
0.079832688
0.088210914
1.884678e-07
7.9718729e-06
6.5122361e-06
1.327717e-05
2.2807353e-05
0.0074491737
0.073947206
0.087869843
0.00025031377
9.8910794e-06
1.409608e-05
2.0495268e-05
1.2494622e-05
0.0047636869
0.060958782
0.084620251
0.00089391295
0.00016157713
2.0689795e-06
1.5767943e-05
4.7267502e-06
0.0011415047
0.044154773
0.081482325
0.0045925524
0.00022543332
2.8522886e-13
2.4233364e-06
2.6292475e-06
0.0036772552
0.031952859
0.065270319
0.0026936575
0.00013162255
1.5979801e-12
2.9086246e-07
1.1393246e-05
0.0034449358
0.015465973
0.08064637
0.0016933599
0.0001034267
1.7471032e-10
1.1151242e-11
7.3749343e-05
0.0033827602
0.018835399
0.026156375
0.0047772826
0.00020156284
1.4074873e-09
1.2245526e-06
1.2242376e-06
0.076066738
0.18806462
0.15969342
1.7828625e-07
1.7748308e-07
3.1107738e-07
1.2244278e-06
1.236299e-06
0.091640056
0.18806417
0.16884702
1.7691927e-07
5.9710167e-07
4.4301985e-06
1.2748099e-06
1.5524099e-06
0.058527572
0.18806451
0.17240117
1.8268951e-07
2.4968391e-06
4.2299349e-06
1.7094592e-06
1.9842543e-06
0.11766625
0.18806379
0.17643517
4.7257698e-05
1.6235238e-05
2.4479958e-08
7.5093405e-07
0.00262484
0.13088254
0.18805808
0.18097622
3.8769958e-07
2.670022e-05
2.5729936e-06
1.6185563e-07
0.0018017508
0.069023141
0.18803989
0.17783432
0.00029583263
8.5039305e-05
3.8690955e-06
3.0393655e-07
0.00092693515
0.014731851
0.18286595
0.17568634
1.2797612e-06
5.8890666e-05
2.3482233e-06
1.3265829e-09
0.00011310428
0.03068962
0.17673819
0.16529677
0.0022497734
1.7094157e-05
5.2298615e-08
8.760333e-05
1.2280263e-06
0.073222142
0.18803714
0.14538271
1.7691893e-07
2.1567259e-06
1.2913381e-05
1.27481e-06
0.00023447004
0.088521458
0.18806417
0.15233778
1.7953916e-07
1.7697421e-07
1.2120728e-06
3.2948436e-05
2.1682712e-05
0.083363729
0.18806397
0.15168666
1.7580608e-07
1.8268951e-07
2.1173282e-07
7.7700084e-05
9.7804482e-06
0.091629082
0.18805803
0.150731
1.7441569e-07
1.8550732e-07
1.6456498e-07
8.2120572e-05
0.00010405465
0.093271202
0.17540591
0.15196249
1.7417091e-07
1.4750256e-07
4.8529379e-08
5.6900658e-05
8.005243e-05
0.074902934
0.18787479
0.14431257
1.9441427e-07
9.2967739e-06
4.6240651e-05
1.7090595e-05
3.2387245e-05
0.04952543
0.16235567
0.13955364
4.6726728e-07
1.8208377e-05
0.00014897737
1.1665344e-05
0.00010740855
0.031139345
0.11912261
0.12606866
1.186957e-06
1.8467864e-05
0.00017603693
0.0014398343
0.00074125699
0.015629799
0.030524618
0.04553941
1.9329844e-07
5.099538e-06
1.0518175e-05
0.0013658009
0.0017209148
0.020361383
0.034775911
0.044926559
1.7580608e-07
1.8983198e-06
2.6749698e-06
0.0022467255
0.0027124846
0.018022568
0.022873839
0.041195928
1.7441548e-07
9.329817e-07
3.7825787e-06
0.0017692237
0.0016663615
0.020182704
0.029810191
0.038621979
1.741692e-07
1.7441547e-07
5.5507799e-07
0.0012106663
0.0017485335
0.018932844
0.023594449
0.033120811
1.7441547e-07
1.7414994e-07
2.3554467e-07
0.00087896781
0.003452203
0.022700767
0.016942122
0.029781062
1.7413909e-07
1.4530426e-06
9.9965916e-06
0.00054010189
0.0029161267
0.034024495
0.018899498
0.024322554
1.9441392e-07
2.1504971e-05
0.00012836211
0.00019157272
0.0045418996
0.027081761
0.017629063
0.022190246
4.6726728e-07
4.6804788e-05
0.00017729831
0.0015348904
0.00061693113
0.00025205415
2.1383997e-05
0.0078847238
5.0675243e-06
2.0850605e-06
1.5198021e-05
0.0015618551
0.00061297477
0.00014276689
2.7751301e-05
0.0092682785
1.9455043e-07
3.0367305e-06
1.1096256e-05
0.0015620551
0.0010114107
0.00012127853
0.0003488099
0.0085920624
1.8462041e-07
2.2307729e-06
5.2845092e-07
0.0016300209
0.0012690061
0.00015599858
0.00067434431
0.0090304523
1.7441548e-07
3.7870756e-06
7.4983711e-07
0.0016243786
0.0013649332
0.00013192819
0.00087874967
0.0079492318
1.7441548e-07
1.9013733e-07
1.6761985e-06
0.0016164365
0.0012891231
0.00013394501
0.00098619059
0.0069893964
1.9441382e-07
1.1766572e-06
4.0012256e-06
0.001619459
0.0013420471
0.00027376766
0.0011618056
0.0047015039
3.8661804e-07
3.9798144e-06
1.5738857e-05
0.0016258895
0.0019161734
9.4350759e-05
0.0013070735
0.0027966391
7.2566181e-07
5.1440952e-06
3.1594721e-05
0.00060837485
0.00011239569
9.7555684e-05
2.1274503e-05
1.2035183e-05
0.00012283732
2.0558967e-06
2.0729083e-06
0.00076258323
6.8002504e-05
4.5620429e-05
2.1383997e-05
5.8831594e-05
6.8037119e-05
5.1147386e-06
1.1257868e-05
0.00028730964
1.589916e-05
1.6578571e-05
3.0089442e-05
2.8047122e-05
3.5948392e-05
8.3111716e-06
1.3270326e-05
0.00042400948
1.6541282e-05
1.8242005e-05
2.4998663e-05
2.4176176e-05
4.6893982e-05
1.113999e-05
4.3304762e-06
0.00029081118
1.8242006e-05
1.9751165e-05
2.6677804e-05
6.3065298e-06
5.1804574e-05
1.9085337e-07
8.2162068e-07
0.00051171702
2.8634028e-05
2.3471878e-05
7.728135e-05
3.0542062e-06
7.3340475e-05
1.908018e-07
6.6027375e-07
0.00035596829
3.4632781e-05
2.9058647e-05
0.00021129212
2.8460442e-05
0.00011553526
1.9181636e-07
8.3472666e-07
0.00039232889
3.1321615e-05
3.108062e-05
0.00030688012
0.00012037845
8.5456366e-05
1.940659e-07
6.0993832e-07
6.4579144e-07
7.74164e-07
0.00062478933
0.00034876308
1.1702743e-05
9.6670454e-05
3.988699e-06
7.0747729e-07
1.4272992e-05
8.3402844e-07
0.00068894057
0.00021889471
6.0122483e-06
3.6985086e-05
1.7440143e-06
3.7860846e-06
6.2788595e-06
8.340554e-07
0.00070265122
6.1048526e-05
7.3149285e-07
1.0382257e-05
1.3838739e-06
1.3264435e-05
1.0050895e-05
2.9324712e-05
0.00070210408
0.00012380662
1.4944613e-06
9.5910315e-06
6.4891596e-06
1.3272313e-05
9.5058554e-07
7.4132278e-05
0.00066381298
0.00011950427
3.7495711e-06
7.5910402e-06
7.2253313e-06
6.1164804e-06
1.0409004e-06
8.6929594e-05
0.00049035371
1.489525e-05
5.4661688e-07
1.2424152e-05
1.8999497e-07
1.8988271e-07
7.1594502e-05
0.00012879
0.00040740751
5.2546019e-05
3.2383198e-08
2.6026502e-05
7.4715829e-07
4.4346273e-07
0.00024140882
0.00013840485
0.00022902346
0.00012681358
1.1041164e-06
3.655856e-05
2.6495647e-06
2.1985019e-06
6.4579155e-07
0.00012516713
0.0011913151
0.00067316626
4.300669e-05
0.00010622303
2.0064464e-05
7.0747729e-07
6.4569396e-07
0.00019974952
0.0011914846
0.00091565551
3.8709315e-07
4.1587165e-05
8.4977214e-08
1.3282108e-06
4.422366e-06
0.0002051106
0.0011913483
0.0011890474
3.7799184e-07
3.6896112e-07
2.6748382e-07
4.2703977e-06
9.3503832e-07
0.00018266128
0.0011912368
0.00088605365
8.8022841e-06
1.7321159e-06
1.7986865e-06
1.2014241e-05
9.4936304e-07
0.00030934988
0.0011910169
0.00030873853
8.8013405e-06
1.7495477e-08
4.946866e-06
1.2005271e-05
9.5058554e-07
0.00047409845
0.001191134
0.00064947782
5.405155e-07
8.8380029e-08
6.5106736e-06
1.1961226e-05
2.228589e-05
0.00026744387
0.0011906071
0.00038481554
1.244842e-08
4.2089045e-07
8.3103537e-06
5.8825189e-06
0.00016814333
0.00024850151
0.0011875969
1.73359e-05
1.4692932e-08
5.7179564e-07
2.7694355e-06
9.2355149e-07
6.4564293e-07
0.00061301593
0.0011917637
0.0008134385
0.00012845451
0.00010623629
6.163717e-06
9.3466965e-07
1.1402237e-05
0.00056985036
0.0011917601
0.00086250856
6.615775e-05
6.0052248e-05
8.4802778e-08
2.1691335e-06
6.8237501e-07
0.0010615059
0.0011916696
0.0010109604
4.8624215e-05
2.9945443e-06
8.4977214e-08
1.2151545e-06
7.2355798e-07
0.0011536028
0.0011915182
0.000765736
1.9041399e-05
4.593104e-09
1.5291623e-07
4.5612299e-06
7.1234128e-05
0.0010216099
0.0011914035
0.0010714379
5.8335596e-09
8.7199388e-09
3.2704543e-06
1.1977128e-05
0.00012384543
0.00097757812
0.0011912618
0.0011892881
4.900758e-09
2.8443429e-07
8.5364063e-06
1.195597e-05
0.0001451321
0.0009872785
0.0011911848
0.00094241955
8.2251538e-09
1.0733157e-06
8.5182932e-06
5.6110428e-06
0.00020558525
0.0009130256
0.0011906557
0.0001287643
1.2448419e-08
6.8251649e-07
3.5003441e-06
2.2046585e-08
9.8544747e-06
0.00062336921
0.0011917637
0.00072397612
8.6393588e-05
4.8753737e-05
2.5151426e-05
1.0522922e-05
7.9467479e-06
0.00087687129
0.0011917637
0.00088509075
8.7112305e-06
6.0108851e-05
8.4906584e-08
2.3084632e-06
6.5793332e-07
0.00094474875
0.0011917613
0.00087693455
9.8701571e-09
2.8509454e-06
8.5325912e-08
9.8756231e-07
6.8255023e-07
0.0010116317
0.0011916696
0.00079106556
4.5551906e-09
4.5574967e-09
4.6343754e-09
3.8091484e-07
7.2355798e-07
0.0011546926
0.0011915182
0.00076018388
4.5384359e-09
4.5863627e-09
1.1449204e-06
8.9158363e-06
9.2214742e-05
0.0011449976
0.0011913264
0.00077103119
4.5819231e-09
6.8497836e-08
5.6889909e-06
1.1900857e-05
9.8058671e-05
0.0010071569
0.0011906701
0.00053793971
4.9007581e-09
1.0718622e-06
8.2718092e-06
4.0758533e-06
0.00017265597
0.00097529878
0.0011660155
5.2807098e-05
8.2251538e-09
4.2220519e-06
8.2386547e-06
1.2503499e-08
1.4378724e-06
0.00026973113
0.0011917637
0.00042591937
4.6711889e-06
1.5265692e-05
2.9536611e-05
1.4944921e-05
1.299099e-06
0.00043757512
0.0011917613
0.00041559876