/*--------------------------------*- C++ -*----------------------------------*\
  =========                 |
  \\      /  F ield         | OpenFOAM: The Open Source CFD Toolbox
   \\    /   O peration     | Website:  https://openfoam.org
    \\  /    A nd           | Version:  13
     \\/     M anipulation  |
\*---------------------------------------------------------------------------*/
FoamFile
{
    format      ascii;
    class       surfaceScalarField;
    location    "0.1";
    object      alphaPhi.water;
}
// * * * * * * * * * * * * * * * * * * * * * * * * * * * * * * * * * * * * * //

dimensions      [0 3 -1 0 0 0 0];

internalField   nonuniform List<scalar> 
150720
(
-7.5496916e-61
-6.4148366e-60
-2.003128e-60
-8.7507644e-61
-3.9287691e-61
-8.4646641e-60
-2.5605736e-60
9.7520148e-75
-9.6429957e-60
-2.9099901e-60
-9.5913025e-77
-2.8107898e-72
-8.4239541e-73
-1.8323556e-76
-5.3554258e-74
-1.6050367e-74
3.1837109e-79
-7.4971453e-75
-2.2623187e-75
6.5652173e-79
-6.8154688e-78
-2.0596574e-78
-5.4614977e-78
-1.7127937e-78
-7.597948e-79
-7.1151807e-58
-2.0612276e-57
-1.0366605e-57
1.0240829e-57
-1.0843553e-58
-1.2652263e-57
-4.9229369e-58
1.2523701e-74
-2.5433846e-58
-1.0408624e-58
4.8550689e-79
-4.3992046e-72
-1.9254983e-72
-2.2622481e-76
-8.3807228e-74
-3.6678995e-74
2.0282401e-61
-4.5070143e-61
-1.8438245e-61
1.3383213e-60
-2.3562317e-60
-9.1505807e-61
-3.8215144e-60
-1.9327971e-60
1.9054827e-60
-1.1382528e-57
-4.5928992e-57
-2.6630864e-57
1.513422e-57
-1.2261537e-58
-3.0076528e-57
-1.200986e-57
8.8602052e-74
-4.9698879e-58
-2.1740889e-58
-1.4268166e-76
-5.1612118e-72
-2.5390647e-72
-1.686646e-75
-9.8727499e-74
-4.8560155e-74
2.3138349e-61
-9.0423374e-61
-3.9530112e-61
2.1476604e-60
-5.6341714e-60
-2.2445411e-60
-8.5502193e-60
-4.98482e-60
2.8323982e-60
-9.2670492e-58
-6.6057549e-57
-4.10512e-57
1.351305e-57
-4.5430165e-59
-4.3526744e-57
-1.7567502e-57
1.1135225e-73
-5.8629509e-58
-2.6800204e-58
-3.7561065e-76
-5.4271887e-72
-2.8754977e-72
-2.1483155e-75
-1.0466002e-73
-5.5435756e-74
8.6513505e-62
-1.0717828e-60
-4.8949279e-61
1.7454741e-60
-8.1601491e-60
-3.2853678e-60
-1.2315817e-59
-7.6882668e-60
2.5360398e-60
-3.5837439e-58
-8.114543e-57
-5.1472576e-57
1.015136e-57
6.2755838e-60
-4.818099e-57
-1.9887808e-57
8.5202634e-74
-5.9236295e-58
-2.8462982e-58
-4.0980128e-76
-5.4176084e-72
-3.0405583e-72
-1.6641724e-75
-1.0542854e-73
-5.9147845e-74
-1.1465325e-62
-1.0833658e-60
-5.200483e-61
6.6987452e-61
-9.0259569e-60
-3.7166534e-60
-1.5149207e-59
-9.6369411e-60
1.9142786e-60
1.1359725e-58
-8.701729e-57
-5.4458499e-57
5.5403385e-58
1.8033651e-59
-4.6523914e-57
-1.9962456e-57
4.4172239e-74
-5.7001254e-58
-2.914995e-58
-2.7048073e-76
-5.2688727e-72
-3.0842717e-72
-8.7670064e-76
-1.0334859e-73
-6.0474773e-74
-3.3199602e-62
-1.0424371e-60
-5.3260882e-61
-2.1577843e-61
-8.7098241e-60
-3.7284266e-60
-1.6250603e-59
-1.0179443e-59
1.0561146e-60
2.7311091e-58
-8.375637e-57
-5.0855182e-57
7.0649014e-59
2.0164885e-59
-4.2566647e-57
-1.9379235e-57
-4.2356491e-60
-5.3133071e-58
-2.938674e-58
6.2270742e-67
-4.9326673e-60
-2.9659993e-60
7.7834983e-63
-9.1075208e-63
-5.4747619e-63
-3.7138425e-62
-9.7130904e-61
-5.3685713e-61
-5.1472279e-61
-7.9629577e-60
-3.6171344e-60
-1.5641336e-59
-9.4882641e-60
1.552321e-61
3.6980585e-58
-4.5604701e-57
-1.2611351e-58
-7.8098185e-57
8.9233831e-60
-1.8946941e-57
-3.7419835e-57
-2.8004637e-59
-2.9213204e-58
-4.720943e-58
1.3970241e-65
-3.0127723e-59
-5.1186007e-59
5.1174682e-62
-5.4956696e-62
-9.3370231e-62
-1.6877312e-62
-5.3342149e-61
-8.6207255e-61
-6.9476207e-61
-3.5328194e-60
-6.9945963e-60
-8.4940531e-60
-2.2493434e-61
-1.4582204e-59
-5.4388407e-42
3.0760868e-42
-4.9065665e-42
-4.0344734e-42
-1.8535565e-42
-8.3838424e-42
-6.2573915e-42
2.1816896e-47
-3.5899698e-42
-3.0029712e-42
-1.2510174e-49
-1.4584325e-46
-2.0089576e-46
-6.4670051e-49
-4.3263486e-48
-5.9504448e-48
4.456551e-47
-4.5246399e-47
-3.7765648e-47
1.9326704e-46
-2.0105635e-46
-1.4913285e-46
1.5554453e-46
-1.7200465e-46
-1.4369306e-46
-1.789578e-41
2.2451775e-42
-1.2816113e-41
2.135304e-41
-3.8312918e-42
-2.0009765e-41
-1.1615165e-41
1.0247613e-47
-6.0320664e-42
-4.5611638e-42
-4.1838191e-50
-7.6274448e-47
-1.1429545e-46
-3.0699375e-49
-2.2919645e-48
-3.4280403e-48
1.5479687e-46
-1.5773985e-46
-1.1896541e-46
8.7697426e-46
-8.0673104e-46
-4.6572524e-46
1.1353044e-46
-6.2303435e-46
1.0981752e-45
-6.8126294e-42
1.1665145e-43
-9.4158033e-42
1.3408485e-41
-6.7723204e-43
-2.1812629e-41
-1.0433495e-41
6.7368697e-48
-4.8318005e-42
-3.2465969e-42
-1.9872205e-50
-3.3098545e-47
-4.7440583e-47
-2.05512e-49
-1.0106765e-48
-1.4452647e-48
2.8703984e-47
-1.2680689e-46
-8.4935757e-47
3.3028553e-46
-9.06205e-46
-4.3123522e-46
8.4773971e-48
-4.5258468e-46
6.7889194e-46
-1.5166545e-42
-1.6945241e-42
-5.3555155e-42
5.9162213e-42
1.8951919e-43
-1.9348455e-41
-8.2227062e-42
2.7809053e-48
-3.3541213e-42
-2.1125799e-42
-8.2269998e-51
-1.312813e-47
-1.8156219e-47
-8.6458581e-50
-4.0826599e-49
-5.6306758e-49
-4.7538398e-48
-8.5155171e-47
-5.3443144e-47
7.1889135e-47
-7.9367998e-46
-3.356577e-46
-7.6704012e-47
-2.5135089e-46
2.9475221e-46
1.7200918e-43
-1.395828e-42
-2.057831e-42
1.555981e-42
2.5626959e-43
-1.5845342e-41
-6.3881559e-42
9.1102272e-49
-2.2020355e-42
-1.3828494e-42
-2.4113665e-51
-4.8508047e-48
-6.6133366e-48
-2.8820935e-50
-1.5350461e-49
-2.0863386e-49
-6.3047019e-48
-5.4418668e-47
-3.4042141e-47
-6.7308293e-48
-6.3660166e-46
-2.5546501e-46
-6.1805428e-47
-9.2043042e-47
7.7226316e-47
1.1683871e-42
-1.6326442e-42
-1.5811997e-42
-8.1871381e-44
2.2982137e-43
-1.2012796e-41
-4.8191457e-42
2.5367887e-49
-1.357945e-42
-9.0345906e-43
-4.0664745e-52
-1.6789092e-48
-2.2855551e-48
-8.1360843e-51
-5.3899704e-50
-7.3141011e-50
-5.5244809e-48
-3.2713116e-47
-2.16769e-47
-4.600456e-47
-4.7345284e-46
-1.8908929e-46
-6.4064655e-47
-6.2134163e-47
-3.0113725e-48
1.3800551e-42
-2.0097778e-42
-1.4898627e-42
-2.8451392e-43
1.5568559e-43
-8.538571e-42
-3.5772592e-42
4.8319383e-50
-7.8581449e-43
-5.8792621e-43
5.2034997e-54
-5.4875862e-49
-7.4758684e-49
-1.5501038e-51
-1.7743868e-50
-2.4100093e-50
-3.6474205e-48
-1.8440262e-47
-1.3742247e-47
-5.33966e-47
-3.30629e-46
-1.3790659e-46
-7.6253059e-47
-5.6384575e-47
-1.0624984e-47
1.2331815e-42
-1.3242823e-42
-3.5896377e-43
-2.1801809e-42
7.3779034e-44
-2.6586902e-42
-5.6938681e-42
-1.7079437e-44
-3.7639925e-43
-4.2232978e-43
2.9082382e-52
-2.2224849e-44
-1.8149422e-44
3.9390017e-49
-4.8340996e-49
-3.9561553e-49
-1.6819884e-48
-8.5461975e-48
-9.6230624e-48
-4.6939094e-47
-1.0086126e-46
-2.1703105e-46
-4.9225504e-47
-1.3244428e-47
-8.1432129e-47
9.2186175e-29
-2.0670475e-26
2.050691e-26
7.1378596e-29
1.6573503e-30
4.3632175e-31
9.0377847e-29
-2.0589451e-19
1.0841795e-19
1.8251315e-19
8.0338523e-22
6.2145275e-20
8.2199518e-19
2.744168e-20
2.3700686e-20
5.910501e-19
-3.6045995e-31
5.0166163e-20
8.3562944e-20
-9.5745161e-29
4.5629047e-31
9.492841e-29
-2.1170721e-26
2.1000762e-26
7.4213446e-29
5.4828788e-26
-2.1603586e-27
2.9600157e-24
-3.0333546e-24
2.9613533e-28
1.2367713e-27
5.3469603e-26
-1.8387391e-22
3.3490143e-20
1.1632612e-19
3.848225e-25
4.2637681e-24
1.7779867e-21
3.3209529e-23
1.0181768e-24
6.6283378e-22
-2.6078613e-28
3.4527784e-20
7.9974789e-20
-5.5667273e-26
1.260278e-27
5.4150517e-26
-3.8232906e-27
2.9792739e-24
-3.0522886e-24
2.2770756e-27
-1.1189381e-25
1.5577858e-25
-4.8300497e-26
-5.349498e-22
5.4314766e-23
4.8065203e-22
0
1.7844331e-20
3.9690748e-20
5.354906e-28
5.7993354e-26
4.2052387e-24
0
1.047575e-25
9.1394942e-25
5.1643013e-22
2.7230756e-20
4.2376072e-20
-3.9947728e-27
5.5149985e-23
4.6158162e-22
-2.2898178e-25
2.7063707e-25
-4.9440901e-26
4.1252135e-26
-7.1666237e-24
7.0464994e-24
-4.5799361e-28
-2.8140491e-21
2.1913131e-21
8.6761522e-22
-5.0527669e-26
1.0226713e-20
1.4282012e-20
3.7135779e-30
7.7658055e-28
6.6769984e-27
1.0238806e-25
3.1434167e-28
2.0588054e-27
4.3342657e-21
1.8569202e-20
1.9992371e-20
-7.9196059e-26
3.6867034e-21
1.3180078e-21
-1.5166904e-23
1.4949718e-23
-4.9591972e-28
-4.6249534e-23
2.9666511e-23
5.6231515e-23
-2.8607163e-28
-2.163717e-21
3.9222962e-21
1.351157e-21
-7.5986122e-28
5.0808528e-21
5.9907349e-21
5.6335983e-33
7.2192009e-31
1.3266442e-29
3.0679359e-28
3.2437423e-31
5.3116146e-30
3.8640191e-21
9.847182e-21
1.0647933e-20
8.021466e-23
7.0437218e-21
2.3825645e-21
5.2597863e-23
1.0167039e-22
-4.6453829e-28
-3.808635e-22
3.741084e-22
2.9623824e-22
4.7526371e-23
-1.2173932e-21
4.1551703e-21
1.4680247e-21
-7.1020749e-31
1.8692024e-21
2.7560869e-21
-4.7849055e-37
5.7727434e-35
1.1655493e-32
3.1904404e-31
6.514531e-35
5.2646023e-33
2.3157534e-21
3.7129622e-21
5.2386916e-21
6.6593354e-22
7.6326341e-21
2.6554322e-21
6.6963274e-22
5.2888678e-22
8.2643403e-23
-8.2555286e-22
7.6733969e-22
5.6004912e-22
1.9925338e-22
-5.3460976e-22
3.1150496e-21
1.3377288e-21
-7.3078533e-28
3.7379474e-22
9.5896636e-22
-1.3147162e-39
-7.4518026e-28
1.4394985e-29
6.022322e-35
2.6116211e-36
2.3749907e-36
1.0062415e-21
7.4843345e-22
1.8672147e-21
1.5156321e-21
5.7870629e-21
2.4491909e-21
1.4030971e-21
1.0220018e-21
3.6012604e-22
-6.725131e-22
5.8209275e-22
1.5304201e-22
9.230892e-22
-9.4064616e-23
9.6990279e-22
1.85771e-21
3.9268745e-25
1.7016598e-22
7.7600669e-23
-4.6226421e-28
8.2638414e-25
3.9702549e-26
-9.1738034e-25
1.7140388e-24
8.8079258e-26
1.8513771e-22
3.1927208e-22
1.5518538e-22
1.2465552e-21
1.7930319e-21
3.4665841e-21
1.0707181e-21
2.7481962e-22
1.7057069e-21
2.7544661e-17
-2.2584968e-17
1.283773e-17
2.010975e-17
2.8106403e-20
1.1819199e-19
2.7398363e-17
-8.8175416e-19
3.6029756e-21
1.1093167e-18
2.5297911e-21
-2.1458557e-23
2.188389e-18
8.6604103e-19
-6.5665021e-22
2.1495493e-18
-3.3529148e-20
3.4664821e-21
1.0090733e-18
-3.2227377e-17
1.3989976e-19
3.205395e-17
-2.7940287e-17
1.4870387e-17
2.4380418e-17
3.2805349e-17
-1.0422194e-17
1.3896255e-17
-4.716557e-17
1.4695451e-19
7.8355313e-19
3.199304e-17
-9.443093e-23
2.707043e-21
2.6372216e-19
1.5338302e-25
-4.1475928e-24
2.5784464e-22
2.2521503e-24
-4.0501034e-25
3.4801839e-24
-2.1113885e-19
2.5923724e-21
2.9219565e-19
-4.1165693e-17
1.1188068e-18
3.9976257e-17
-1.4299016e-17
1.9617281e-17
-5.8024654e-17
5.4017393e-19
-2.7255497e-19
4.0199161e-19
-1.1091794e-17
-4.6832469e-23
4.8742697e-20
1.2757997e-18
-3.5074679e-26
5.7837229e-22
4.1831548e-20
6.7637997e-30
-1.1309076e-28
1.7406534e-26
2.3226559e-26
-1.6619279e-28
3.3475518e-26
5.1341716e-23
3.397164e-22
4.471126e-20
-6.2555001e-19
6.3509878e-20
1.6814329e-18
-3.5355458e-19
4.7969297e-19
-1.5050349e-17
1.9362711e-20
-1.3391226e-23
4.4559176e-20
-3.3635934e-19
-8.2540583e-23
2.5503771e-21
6.8334924e-20
-5.4041089e-27
2.4153487e-22
1.45396e-20
4.8356104e-32
-5.5650013e-28
3.1457395e-28
7.1133901e-29
-5.408678e-28
2.6660152e-28
1.24743e-22
3.1906935e-22
2.0230555e-20
-2.0549907e-20
3.2583371e-21
8.2871609e-20
-1.701855e-23
9.8608406e-20
-4.7265798e-19
-3.3119959e-23
-6.3608628e-24
7.2225789e-22
-6.9943158e-22
-3.8009372e-23
5.149096e-22
3.8908133e-21
-6.7364857e-27
5.4307108e-23
6.1524913e-21
-1.2031019e-31
-9.6973873e-27
2.1405513e-27
8.5886859e-27
-1.1024043e-26
1.7547969e-27
6.6659803e-23
1.3259528e-22
1.0767771e-20
5.9196525e-23
6.6093084e-22
3.8025985e-21
-2.1693397e-23
3.2517652e-22
-1.867018e-22
-4.3780252e-23
2.5738409e-23
9.3195831e-23
1.0695283e-23
-5.6495812e-23
2.1672134e-22
1.3754692e-21
-3.9116836e-26
7.9217066e-23
1.0870927e-21
-4.3999011e-29
-2.4624301e-25
2.1224451e-25
3.6553957e-26
-1.9439278e-25
1.7297102e-25
2.1391759e-22
3.405637e-22
9.3690329e-22
1.2426136e-22
6.7854338e-22
1.7025749e-21
9.7639282e-23
1.7435137e-22
3.5860469e-23
-1.0919206e-22
3.28857e-22
2.5399603e-22
1.173109e-22
-2.4570484e-22
4.5007898e-22
7.4775552e-22
-2.6708791e-25
1.4265869e-22
3.5173997e-22
-1.7347663e-27
-1.8640021e-24
1.7361833e-24
3.6689114e-25
-2.4319335e-24
1.9988438e-24
4.6634277e-22
2.8119025e-22
6.1231137e-22
4.0173186e-22
1.530425e-21
5.6126986e-22
5.6699841e-22
4.2451244e-22
1.9975995e-22
-3.1757853e-22
3.428589e-22
2.1771906e-22
5.5552062e-22
-9.1536252e-23
3.0637233e-22
5.8636684e-22
1.2336193e-24
1.6198031e-22
-9.8523868e-25
-4.8608242e-27
3.2132261e-24
-2.2151971e-28
-1.970843e-24
4.760935e-24
-2.4161487e-26
1.7068281e-22
2.6548393e-22
-1.5752966e-24
6.5125409e-22
5.9405576e-22
1.3255496e-21
6.8698775e-22
3.9571634e-22
1.0208354e-21
1.320401e-17
-4.8120904e-19
6.4612155e-20
0
3.2847259e-14
3.5670108e-14
7.8076644e-14
-2.1922766e-18
2.2739929e-14
1.0117094e-13
1.1077724e-23
-1.3100683e-20
1.0909073e-20
2.1473593e-18
-7.7194385e-22
8.8627213e-21
-2.8214178e-14
1.8919696e-14
8.3942947e-14
-1.595274e-17
3.0259663e-14
6.120661e-14
-2.4725951e-19
3.5345443e-20
0
4.1602612e-17
-5.8616821e-19
3.4999511e-19
-2.7762456e-17
1.7777258e-14
8.8150295e-15
2.0376398e-14
0
2.2453711e-14
1.9717681e-13
0
0
8.5576749e-20
0
0
5.0742687e-21
-1.554213e-14
1.3663469e-14
1.63307e-13
-2.8383812e-17
4.3014212e-15
1.1106199e-14
-7.4145698e-19
1.7790985e-19
-7.8805682e-18
1.3146336e-17
-1.6059589e-19
2.5023181e-19
-1.3225486e-17
-3.4173226e-16
4.9659565e-16
8.6753261e-15
-2.2232329e-27
9.5086475e-16
2.11613e-14
2.7553315e-31
-7.7137184e-28
2.9213677e-26
6.3069044e-27
-1.5759845e-27
1.301211e-25
2.5602821e-16
5.8949874e-16
1.2818026e-14
-3.4771533e-17
2.594783e-16
4.3346513e-15
-4.1405943e-19
2.9423766e-19
-3.4719299e-17
3.3654783e-20
-2.6294835e-21
9.4166154e-20
-1.9367268e-19
-2.3402626e-17
1.8560375e-17
5.0155686e-16
-5.3731992e-27
8.4144684e-18
9.1911055e-16
-1.4219662e-30
-4.0946982e-26
5.7883461e-27
3.7754345e-27
-2.625804e-26
9.2773088e-27
1.8171323e-17
3.4040172e-17
5.3730829e-16
-5.8885762e-19
1.7671465e-17
2.6066884e-16
-4.9291879e-22
2.9469511e-19
-1.1491085e-18
-1.925451e-19
-3.1168794e-22
1.9351588e-19
-1.5502593e-21
-7.4245928e-19
1.6808859e-18
1.7628193e-17
-1.9218917e-26
1.3686733e-19
7.6483282e-18
-1.2875247e-28
-5.0824983e-25
2.698654e-25
5.4649519e-26
-3.393347e-25
1.8980783e-25
6.0453427e-19
6.5501451e-19
3.2791425e-17
1.1935792e-19
1.3141398e-18
1.684758e-17
-3.1055682e-22
1.6154772e-19
-4.0968201e-20
-3.7773736e-20
2.490536e-22
3.7155863e-20
2.1527732e-22
-2.5068878e-20
1.2663548e-19
1.5440828e-18
-4.1983899e-26
3.0755485e-22
1.1253703e-19
-7.7606439e-28
-1.6015302e-24
9.0781945e-25
1.772336e-25
-1.4911397e-24
7.4491653e-25
1.6779034e-20
3.3212543e-21
6.3585602e-19
3.4019235e-20
1.0028771e-19
1.1982729e-18
2.0252475e-22
3.3652964e-20
1.9228925e-22
-3.8857207e-21
8.0387734e-23
4.2698205e-21
3.5213772e-23
-3.4692451e-22
1.0366901e-20
1.1349188e-19
-3.0660556e-25
-5.8295985e-24
3.1714934e-22
-2.7998328e-27
-2.4978534e-24
1.7225659e-24
3.8128643e-25
-3.2500999e-24
1.9834109e-24
5.1735574e-22
-6.945056e-24
7.0734031e-21
3.6152756e-21
6.536045e-21
9.564917e-20
1.2232964e-22
4.3848471e-21
2.3613233e-23
-2.356924e-22
5.7905014e-22
1.9855451e-23
4.2693805e-23
-4.665136e-23
9.9382567e-21
5.962505e-22
4.5450802e-25
5.9378474e-23
-6.8592512e-25
-4.3005857e-27
1.5298603e-24
-1.6961283e-26
-9.1564837e-25
2.098449e-24
-9.3067769e-27
6.7969071e-23
9.3983512e-23
-1.5648777e-24
4.7447283e-22
8.3323813e-21
3.2368381e-22
1.2089139e-21
3.0890718e-23
7.775183e-23
1.0792436e-19
-2.2095583e-19
3.6814526e-20
9.0512206e-20
2.4197182e-14
5.406117e-14
7.6130298e-14
-3.0456262e-21
8.4740787e-14
9.9809168e-14
4.3909807e-24
-1.6344555e-22
5.5516624e-21
2.745674e-21
-9.6438957e-24
5.0090464e-21
-1.9451611e-14
7.0973447e-14
8.2597388e-14
-6.3426993e-19
4.4297279e-14
4.7713256e-14
-2.3773517e-20
4.7944332e-21
1.1798558e-20
1.6808653e-18
-1.8888173e-19
1.382937e-19
-2.1400419e-18
6.0829715e-14
2.0496822e-14
3.4577466e-13
-8.4555387e-20
1.4833237e-13
2.5088095e-13
1.1428684e-25
-1.0437429e-26
8.5781129e-22
5.013946e-21
-4.1609951e-26
5.0836888e-23
-3.8091136e-14
1.3071676e-13
1.8961524e-13
-1.498396e-19
0
1.1285111e-13
-3.3631447e-20
7.6220719e-19
-3.2029274e-19
2.8459583e-18
-1.2739418e-18
1.3822483e-19
-4.5745593e-19
-3.6487605e-14
6.1552448e-14
1.4918172e-13
0
2.881065e-14
3.1120931e-13
-1.9088307e-29
-3.3503181e-27
2.402019e-26
0
0
9.6062099e-26
3.1447999e-14
2.6346323e-14
2.101883e-13
-7.5807051e-19
4.7249155e-14
5.1144538e-14
-5.3660195e-20
1.5505104e-20
-2.7192011e-19
4.1271645e-17
-4.8509742e-17
6.4076964e-18
-1.1507194e-19
-1.0154373e-14
2.6877975e-14
6.9226688e-14
0
5.7952012e-16
5.0739441e-14
-1.4837065e-29
-1.3730371e-26
1.0988764e-26
0
-4.7101571e-28
1.2977796e-26
7.7766903e-15
5.5176083e-15
3.1723019e-14
-1.215474e-20
3.6761218e-15
5.1610835e-14
-6.115537e-19
1.2585988e-18
-1.8243636e-19
-2.125747e-15
-4.7027378e-18
2.1030345e-15
-2.0847811e-17
0
1.158248e-15
4.8053851e-15
-2.6114365e-27
1.7179516e-17
5.8225757e-16
-2.6543312e-28
-4.0109645e-25
2.6412774e-25
2.3708569e-26
-2.3937991e-25
1.5682362e-25
2.3858918e-16
1.1200798e-16
5.1998037e-15
2.6930804e-17
2.7377759e-16
3.6357796e-15
-6.3913229e-20
2.6595042e-17
-1.9972491e-21
-4.1046034e-16
1.6094461e-18
4.0164502e-16
2.5517065e-18
-3.781396e-19
1.9280318e-16
5.5739349e-16
-1.9313807e-26
4.7769689e-20
1.6929597e-17
-5.0107386e-28
-6.0042102e-25
4.2421565e-25
7.6035415e-26
-5.1994259e-25
3.1169624e-25
4.7416849e-18
0
1.0790215e-16
5.24604e-18
1.9927995e-17
2.5497776e-16
1.7336886e-20
5.1780384e-18
3.0781373e-20
-4.3082532e-17
9.0656965e-19
4.3129903e-17
6.5854993e-19
-3.3475162e-21
1.0101315e-16
4.8867095e-17
-9.4678899e-25
-5.8047229e-23
4.4797883e-20
-9.5950969e-28
-6.6680716e-25
3.9576035e-25
0
-9.1845764e-25
6.1640036e-25
4.8324028e-19
-9.4576019e-23
1.4162336e-18
5.8341489e-19
1.1061533e-18
1.9106453e-17
6.6121409e-20
6.4835307e-18
9.5945677e-20
-3.4716756e-18
4.1279754e-18
8.8527887e-20
1.6070496e-19
-1.1840754e-24
9.2089617e-17
5.4618e-18
3.6340285e-27
2.6447548e-24
-2.9878046e-24
-1.0566843e-27
4.0354295e-25
-5.2019592e-26
-6.0580128e-27
5.1529124e-25
-8.8342034e-26
1.3894238e-24
2.0313894e-24
-4.4334958e-24
3.1968673e-20
1.16348e-18
1.0041659e-19
1.3200237e-17
4.7390297e-19
8.608761e-19
0
-1.6019595e-12
1.1521885e-14
1.2156613e-12
9.0469134e-15
3.4024057e-13
2.58807e-14
-1.249409e-21
2.9124464e-14
2.1120134e-14
4.3203321e-27
-1.8703269e-24
4.3161546e-21
8.4298555e-22
-1.1166059e-25
4.1668937e-21
-2.7403587e-15
2.1239905e-14
1.670301e-14
0
1.3032727e-13
6.8268723e-15
-3.6168064e-13
1.4702817e-15
3.6021124e-13
3.6725209e-12
-1.6667056e-13
1.0702776e-12
-1.3817369e-12
5.8697914e-14
8.1437545e-13
7.1204909e-13
-8.4711343e-22
1.6614872e-13
3.6182678e-14
-2.2583545e-28
-4.818504e-27
8.8333658e-24
5.0200831e-23
-5.3050176e-27
5.2926219e-25
-3.7570054e-14
1.1112927e-13
4.7311443e-14
-7.255724e-13
1.1229432e-12
2.9606763e-13
-1.4763012e-13
5.5023534e-13
0
3.2028887e-13
-8.9326462e-14
1.0621873e-13
-9.7926954e-13
-6.0415787e-14
0
4.5565144e-13
-2.2169479e-26
1.2763915e-13
2.4862961e-13
-1.2038815e-29
-1.1836545e-26
1.0070195e-26
9.0167227e-26
-1.1287639e-26
1.1111368e-26
4.0369558e-14
1.7436102e-13
2.8858963e-14
-4.9886307e-14
1.3659032e-12
4.4538177e-13
-1.9950905e-13
1.8669318e-15
-2.0142084e-16
5.3043203e-15
-3.4116128e-14
2.1083403e-14
-8.15856e-14
-6.120527e-14
6.9201491e-15
7.6778813e-14
0
4.1629802e-15
1.6585006e-13
-2.1521997e-29
-7.7227997e-27
1.5496574e-26
9.3697353e-26
-9.9191943e-26
1.344476e-26
1.4694034e-13
9.5702482e-14
1.2888921e-13
-2.747821e-14
1.4814557e-12
6.1704729e-13
-1.5184738e-13
1.0103409e-13
-2.2737728e-13
-7.082838e-16
-1.7971877e-14
1.8036092e-13
0
-1.1562903e-15
9.2650479e-15
3.8230396e-15
-9.4786382e-28
3.2159179e-16
3.2686627e-15
-1.1984776e-31
-1.9861785e-26
6.4129744e-26
2.575072e-24
-2.5784645e-24
8.3917673e-26
8.6960398e-14
1.7354084e-14
9.2829522e-14
1.846071e-13
1.0825056e-12
7.7176428e-13
-1.0145507e-13
9.1547005e-14
-1.8821109e-15
-7.3735641e-15
8.4539123e-15
2.0168387e-13
1.3281659e-14
-2.5181637e-16
1.8420464e-15
1.1448888e-15
-4.9129623e-24
1.2490652e-18
8.5465809e-17
-5.2334322e-29
-5.2135606e-24
6.2227817e-25
5.3698342e-23
-5.7369598e-23
1.7718946e-24
0
6.8812123e-18
1.3408584e-14
3.04963e-13
3.0095214e-13
6.2658444e-13
9.1639127e-16
9.0730978e-14
9.573463e-15
-7.2632235e-16
3.8248686e-14
2.330451e-13
3.3021319e-14
-1.2485855e-18
1.1124312e-15
5.4609647e-17
-3.0060372e-24
-3.1669585e-22
4.5527522e-20
-1.6975277e-26
-4.2680056e-23
2.3894516e-23
4.5749906e-22
-4.9763944e-22
3.5067275e-23
0
-1.5707925e-23
8.5511061e-18
3.9026319e-14
9.7996193e-15
1.0478267e-13
0
1.3607059e-14
2.3055901e-15
-6.1458438e-14
2.4808138e-13
4.5020002e-14
6.9668916e-14
-1.9868403e-20
5.9740388e-14
6.7354983e-14
0
7.9525007e-22
-2.0979141e-20
-7.6194603e-25
1.2634887e-22
0
0
2.8929762e-22
-4.7928803e-22
1.9170448e-24
1.5053975e-22
-2.1717453e-22
2.2576597e-15
6.8190278e-15
1.061849e-15
1.0463471e-15
5.4394438e-16
8.4836646e-16
7.4861009e-19
-1.4903265e-12
8.1539249e-15
1.5133047e-12
2.8299741e-15
3.0602867e-14
9.3001541e-15
-1.7659521e-14
2.2614583e-16
4.4087272e-14
4.9095659e-19
-8.6829517e-24
2.4536794e-13
1.6771042e-14
-5.1643451e-25
2.4376887e-13
-2.0672209e-15
2.0602911e-16
3.7382409e-14
0
1.8401511e-14
6.5285324e-15
-1.1719757e-12
2.7375161e-15
1.2171248e-12
0
0
1.2146037e-12
-1.0133841e-12
2.1005295e-14
2.8079525e-13
3.9993144e-14
-5.4491033e-26
4.6287015e-15
5.2785417e-14
-7.426984e-30
-5.1680642e-27
1.0106037e-25
4.5312212e-27
-5.1022931e-27
1.2341123e-26
-1.1489307e-14
5.4549317e-16
5.8461286e-14
0
8.9712194e-14
1.9495613e-14
0
1.1171676e-12
-1.2325579e-12
0
-2.130901e-13
3.3372051e-13
-2.8438453e-13
-4.2724078e-14
2.3425556e-13
1.1111845e-13
-1.2432388e-26
2.0414645e-13
2.5512875e-14
-1.3702627e-29
-1.8631968e-26
1.0361314e-26
6.786068e-27
-1.1808798e-26
1.0229835e-26
2.1798993e-15
1.9677201e-14
2.7457756e-15
-3.1930474e-15
4.7794708e-13
3.032712e-14
-9.2678164e-14
1.7943059e-13
-6.718709e-14
6.1569753e-15
-3.4931081e-13
2.1654418e-13
0
-7.5122336e-14
1.0112981e-13
1.0647268e-13
-3.7649382e-25
6.3675318e-14
1.0267652e-13
-2.6068758e-29
-3.9993359e-25
2.1471248e-26
2.9227239e-26
-4.1954058e-26
1.3612481e-26
8.8250421e-14
7.1278758e-14
2.3089099e-14
0
1.6295529e-12
3.5914207e-13
-1.3172491e-13
9.2307843e-14
0
0
-2.3092723e-13
5.0111121e-13
0
-1.5029621e-14
4.2284375e-14
2.8067756e-14
0
1.1276819e-15
2.6186622e-14
-4.0972823e-30
-6.1763492e-25
2.9897427e-25
6.6267791e-25
-6.5129594e-25
3.4399324e-26
1.2167055e-13
4.5310933e-14
6.9807321e-14
2.9312059e-13
2.0895619e-12
5.9040212e-13
-1.3167046e-13
9.2578096e-14
0
-3.1331887e-15
3.6969523e-14
1.7803441e-13
3.4080455e-14
-8.3008797e-16
5.8924497e-15
3.7704767e-14
-2.3609633e-25
-7.2312031e-21
3.8306541e-16
0
-4.3051438e-23
8.3386401e-24
1.1988421e-23
-1.1205195e-23
4.3236678e-25
0
-4.8423022e-17
3.5598407e-14
5.8232092e-13
1.786102e-12
7.2609958e-13
5.7109267e-15
1.1849567e-13
0
-1.4484984e-15
2.310961e-13
4.8379137e-13
1.679815e-13
-3.9593963e-20
1.1719461e-15
3.3266947e-15
-2.1167721e-23
-3.0259245e-21
1.7685044e-21
0
-2.9328239e-22
1.08859e-22
1.5968182e-22
-1.4097751e-22
6.3601536e-24
0
-4.4260372e-20
1.0406826e-16
2.3965547e-13
2.7809917e-14
3.115038e-13
2.0230248e-15
3.6201936e-14
0
-2.4741126e-13
3.2894002e-13
1.3689227e-13
8.5262508e-14
-1.4236731e-19
2.0720653e-13
1.2033324e-13
5.6564583e-25
3.7047728e-21
-1.4726611e-19
-1.5542841e-25
7.3899855e-22
-1.0065353e-21
-7.0248534e-29
4.4219622e-23
-7.3723257e-24
3.1285882e-23
1.8862891e-21
-4.6053781e-20
1.1139661e-14
1.8869943e-14
4.9063414e-15
1.2692058e-14
0
0
6.4733333e-14
-1.1102063e-11
2.8067418e-14
1.1051565e-11
4.4346403e-14
3.9984548e-14
9.4273517e-15
-3.1289184e-13
1.2292185e-12
1.2637991e-11
-4.6044705e-16
-1.0165579e-25
1.4337658e-12
3.1647454e-13
-1.2601038e-26
1.4374276e-12
-6.8377391e-14
1.2405256e-12
1.248816e-11
-2.4837357e-14
1.2532674e-14
6.3047759e-15
-6.5451164e-12
1.481922e-14
6.6861933e-12
1.3738274e-12
0
7.8949823e-12
-1.280225e-11
1.471252e-13
8.625542e-13
2.5271413e-13
0
0
4.7553059e-12
-8.1565431e-30
-1.022249e-26
8.1533089e-27
0
-8.6624206e-27
7.1284985e-27
-1.3992689e-13
4.7006947e-14
4.5458225e-12
-8.3699712e-13
4.9321033e-13
1.915741e-13
0
6.0396994e-12
-7.3895715e-12
0
-8.1345657e-13
1.8337136e-12
0
-1.2028121e-15
5.1322223e-13
2.6425431e-13
0
0
1.6946257e-14
-2.3245256e-29
-1.1450947e-26
1.0905047e-26
5.8743962e-28
-1.0827331e-26
1.0785894e-26
2.6110727e-15
2.1147361e-14
2.5994001e-14
0
1.3343554e-12
4.5909065e-13
-1.7534747e-13
1.0979111e-12
0
0
-3.8096157e-13
1.018568e-13
-5.1923244e-13
-8.5621375e-15
2.1799308e-13
4.9625375e-14
-5.0987526e-25
6.304194e-15
7.5007242e-15
-3.4257893e-29
-5.1784792e-25
1.993186e-26
3.3617935e-26
-4.615685e-26
1.4482977e-26
3.9751654e-14
3.2141363e-15
1.2706843e-15
0
5.1825114e-13
7.8896744e-13
-1.2155391e-13
1.3718017e-13
0
-1.9505746e-14
-3.2898875e-13
5.7831722e-13
0
-7.4555644e-15
1.6294329e-13
5.1829472e-14
0
1.6455454e-15
3.9052609e-15
-4.0046387e-30
-5.6504644e-25
4.5194181e-25
6.9639963e-25
-7.3775853e-25
3.7511014e-26
6.6817665e-15
2.0724591e-14
1.5649862e-14
8.8423592e-14
0
1.9242867e-13
-4.5179319e-14
2.4480516e-13
0
-3.7725381e-13
1.1574648e-13
5.3067782e-13
1.9735901e-13
-1.9659102e-15
3.6199018e-12
1.2023689e-12
-2.5533822e-22
-1.1878398e-22
6.2700965e-17
-1.308299e-27
-2.5432578e-22
9.0826794e-24
1.2951265e-23
-1.3294704e-23
2.723822e-25
0
-2.5239943e-16
8.3623827e-15
1.0012103e-13
0
2.4404581e-14
3.1151195e-15
1.2340958e-13
2.6157472e-17
-5.4529663e-13
1.0808912e-13
5.2463461e-13
0
-4.0773755e-20
1.237119e-12
1.1312246e-12
-2.6185947e-22
-4.0118589e-20
1.5797812e-21
-5.5629481e-27
-6.7856873e-22
1.6561565e-22
1.7123359e-22
-1.8143591e-22
7.1434806e-24
0
-1.3637702e-19
9.2409518e-18
4.7505246e-14
0
3.1514303e-14
1.7055222e-14
4.0034383e-14
6.401158e-15
-4.1358662e-13
3.0116113e-13
0
0
-8.3763502e-19
6.630238e-13
0
-4.8992786e-23
3.7912047e-20
-9.337243e-20
-1.6274849e-25
1.6208661e-21
-1.1781997e-21
-1.210792e-24
6.945643e-23
-9.008215e-23
0
6.3212085e-21
-1.3992186e-19
6.749738e-15
4.3819321e-15
7.4251008e-15
3.0229333e-13
3.9238019e-14
4.1047489e-14
1.1433884e-13
-1.4733063e-11
3.429376e-14
1.4668805e-11
1.2366742e-13
2.4036623e-14
9.7403098e-15
-7.173261e-13
7.1007163e-12
5.212306e-11
-4.3247528e-15
-1.7696832e-26
2.8361725e-12
7.2157032e-13
-9.5703902e-27
2.8310251e-12
-1.6942915e-13
7.1469877e-12
5.2108371e-11
-1.234594e-13
2.9578876e-14
6.875307e-15
-1.7216006e-11
3.7136305e-14
1.7265288e-11
2.5666149e-12
-4.783702e-12
7.5899809e-12
-1.692521e-11
1.2355076e-12
1.3403444e-12
3.2165856e-13
0
3.5415483e-13
3.6503267e-11
-1.7533043e-29
-1.7629315e-26
7.4493687e-27
0
-1.0046796e-26
7.3439303e-27
-1.2679716e-12
3.2757298e-13
3.647771e-11
-5.4219078e-12
4.1001505e-12
3.7259582e-13
-4.5831031e-12
9.3927687e-12
-2.03915e-11
0
-2.1716012e-12
3.100484e-12
-3.8391789e-12
-3.3803224e-14
1.3470324e-12
2.9047302e-13
-6.3156092e-27
1.9343787e-14
3.1802225e-13
-3.2705157e-29
-2.2103865e-26
3.4916865e-26
1.1248717e-27
-1.1801432e-26
1.1328867e-26
9.6130836e-15
9.8992723e-15
3.3405431e-13
-2.3152613e-12
2.4890965e-12
1.8548234e-12
-2.4925642e-12
2.8015599e-12
-3.631421e-12
5.0615749e-14
-7.0117346e-13
1.9360769e-13
-1.4324457e-12
-1.2476098e-14
1.484269e-12
2.3987923e-14
-1.4642207e-26
6.0754782e-15
8.3570839e-15
-5.3837784e-29
-1.3103753e-27
5.0477761e-26
1.4961467e-25
-1.6334433e-25
1.6480295e-26
0
3.8473266e-20
1.2275402e-14
0
0
1.3618534e-12
-5.4288373e-13
3.5371839e-13
-1.4700286e-12
-8.7314438e-13
-5.4536361e-13
6.6871365e-13
0
-9.5511613e-15
9.6214492e-12
2.0665584e-12
-1.7618655e-23
1.5376758e-16
2.7580839e-16
-4.3614336e-28
-1.7437049e-23
5.2050199e-25
3.6409233e-24
-3.8130464e-24
1.1343779e-25
5.3143158e-16
6.1402699e-16
1.7061942e-15
0
2.4217352e-14
6.2845881e-14
-4.7506533e-13
6.8122647e-13
0
-1.6120875e-12
1.143202e-14
3.9506182e-13
0
-1.7693414e-13
4.5394765e-12
3.0631945e-12
-3.0272265e-22
-1.8464781e-17
3.2659639e-15
-8.4829439e-27
-3.1947756e-22
1.1699693e-23
3.1105834e-23
-3.5430254e-23
2.3701557e-24
4.4950079e-15
-1.2396825e-19
2.4053755e-16
0
3.8609403e-14
1.2983788e-14
2.5281928e-14
1.025636e-12
2.6790091e-14
-8.0158572e-13
0
1.4130293e-13
0
0
0
1.1398098e-12
-4.0394316e-21
0
3.4870322e-16
-1.3772441e-25
-4.3302294e-21
1.816435e-22
8.0509363e-22
-8.4489978e-22
3.6344382e-23
8.8323156e-18
-1.6346207e-20
3.4525519e-19
6.0678084e-14
6.8689399e-15
2.5892852e-15
3.1878162e-13
1.099914e-12
2.0519074e-13
-1.0116753e-13
4.0359894e-14
0
0
0
5.5190649e-14
0
-9.7667565e-22
2.7036981e-19
-1.9346868e-19
-1.2521772e-24
1.7140333e-21
-4.986674e-21
2.1950494e-24
3.7262256e-22
-8.4552669e-22
6.3550186e-19
2.8466086e-20
-6.7145188e-19
8.6538983e-15
3.7158646e-16
2.2260877e-15
1.4631768e-12
3.182488e-13
4.8586705e-13
8.7508493e-14
-9.8137206e-12
2.2983266e-14
9.8149768e-12
1.2399847e-13
1.966734e-14
9.8181698e-15
-1.9752258e-12
1.948228e-11
7.7741295e-11
-8.938845e-15
-1.3954318e-25
3.643166e-12
1.9745629e-12
-1.4910432e-25
3.6136969e-12
-2.033922e-13
1.9357067e-11
7.6579164e-11
-1.185511e-13
1.6355737e-14
7.1186202e-15
-1.4770563e-11
3.172413e-14
1.4788718e-11
4.5058319e-12
-3.7781476e-12
3.6715356e-12
-1.3043979e-11
4.364352e-12
3.5980916e-13
1.9756041e-13
0
5.6233683e-14
1.1322507e-10
-3.3257249e-29
-1.429398e-25
9.1618316e-27
0
-1.5317313e-25
9.1980766e-27
-4.6833526e-12
3.4710929e-13
1.1307477e-10
-5.4530463e-12
9.8860451e-13
2.9643701e-13
-7.8520097e-12
6.2231944e-12
-1.6347865e-11
0
-5.8794794e-13
3.6100828e-12
-5.299168e-12
-3.7718248e-13
1.2981656e-12
3.1120602e-13
0
1.4727532e-13
3.8060156e-12
-4.7941929e-28
-1.3543114e-25
4.579867e-25
0
-2.3984085e-25
4.9419747e-25
4.3091235e-13
4.8939582e-14
4.7418925e-12
0
5.5123941e-12
1.0908811e-12
-4.2297717e-12
6.0469598e-12
-7.076616e-12
1.562729e-13
-7.478448e-13
5.3755869e-13
0
-3.1986218e-14
9.7700833e-13
3.5215736e-14
-6.9151225e-27
4.872988e-14
7.4959668e-14
-7.1197568e-28
-1.7745895e-25
3.5200233e-25
1.1551612e-25
-2.7599112e-25
5.3131028e-25
0
4.4988278e-16
7.216107e-14
-3.0159131e-14
2.0298127e-12
1.9046938e-12
-1.1432833e-12
6.3611253e-13
-1.2821381e-12
-1.6067857e-12
-5.0107168e-13
8.68775e-13
0
-4.6803132e-14
8.0946523e-12
3.6407535e-12
-2.2800101e-23
6.8232258e-16
1.5129977e-15
-1.7162876e-27
-2.2893772e-23
9.4431767e-25
1.0137658e-23
-8.9669162e-24
3.5077643e-25
0
2.5885561e-16
1.9708738e-15
1.2056164e-13
1.5923502e-13
4.7602813e-13
-6.4225415e-13
7.7545566e-13
0
-1.4878464e-12
0
3.6990161e-13
2.6484604e-14
0
1.8980047e-12
4.3949647e-12
-4.1849098e-22
0
7.4973031e-15
-2.8163725e-26
-4.4221444e-22
1.6547123e-23
1.5984867e-22
-1.4439613e-22
6.7390293e-24
4.4921198e-16
-3.6188725e-22
5.0252358e-17
8.7986804e-15