/*--------------------------------*- C++ -*----------------------------------*\
  =========                 |
  \\      /  F ield         | OpenFOAM: The Open Source CFD Toolbox
   \\    /   O peration     | Website:  https://openfoam.org
    \\  /    A nd           | Version:  13
     \\/     M anipulation  |
\*---------------------------------------------------------------------------*/
FoamFile
{
    format      ascii;
    class       volScalarField;
    location    "0.1";
    object      alpha.water;
}
// * * * * * * * * * * * * * * * * * * * * * * * * * * * * * * * * * * * * * //

dimensions      [];

internalField   nonuniform List<scalar> 
51200
(
-2.7956611e-51
-2.9548496e-51
-3.3594015e-51
-1.0191669e-63
-1.9416591e-65
-2.6111866e-66
-2.3763049e-69
-2.3901676e-69
-6.1383861e-49
-2.4932929e-49
-5.2882543e-50
-1.0191651e-63
-1.9412613e-65
-9.3661241e-53
-4.6335755e-52
-1.1443564e-51
-1.1505646e-48
-4.6126828e-49
-8.4162458e-50
-1.0191664e-63
-1.9490694e-65
-1.5301135e-52
-8.6200125e-52
-2.1535567e-51
-1.5095006e-48
-5.9603486e-49
-9.2031977e-50
-1.0191667e-63
-1.9647481e-65
-1.6808581e-52
-1.1146796e-51
-2.8270071e-51
-1.7410689e-48
-6.400983e-49
-9.2856974e-50
-1.0191667e-63
-1.9825299e-65
-1.6966007e-52
-1.1963004e-51
-3.2597195e-51
-1.7745313e-48
-6.3538721e-49
-9.4103433e-50
-1.0191665e-63
-1.9982821e-65
-1.7194383e-52
-1.1868441e-51
-3.3170237e-51
-1.6505098e-48
-6.2659256e-49
-9.6030286e-50
-9.8682362e-52
-1.8214665e-54
-1.7543948e-52
-1.1696856e-51
-3.0795079e-51
-1.5023662e-48
-6.295829e-49
-9.7835323e-50
-1.023925e-50
-1.8677059e-53
-1.7864922e-52
-1.1741009e-51
-2.7983496e-51
-1.4964066e-32
-1.3410109e-32
-6.2589907e-33
-4.4604645e-37
-1.3209983e-38
-7.8697294e-38
-3.1951891e-37
-5.2415958e-37
-1.2583828e-32
-8.8160401e-33
-3.428811e-33
-9.0629923e-38
-2.7180364e-39
-8.941828e-38
-3.5341316e-37
-6.1139011e-37
-5.9545645e-33
-5.4713024e-33
-1.710284e-33
-2.6192021e-38
-7.9792813e-40
-4.4746757e-38
-2.26154e-37
-2.8615671e-37
-2.6615769e-33
-3.5772482e-33
-9.3173925e-34
-8.3409001e-39
-2.5868378e-40
-2.3576634e-38
-1.4607004e-37
-1.2492564e-37
-8.8336394e-34
-2.4942677e-33
-5.4869474e-34
-2.7159748e-39
-8.5688151e-41
-1.3512007e-38
-9.9789364e-38
-3.95211e-38
-6.2070703e-34
-1.7686964e-33
-3.3664033e-34
-8.7661896e-40
-2.8055251e-41
-8.0801673e-39
-6.9433874e-38
-2.440104e-38
-5.566616e-34
-1.2702236e-33
-2.1035142e-34
-2.7322796e-40
-8.8086586e-42
-4.9185761e-39
-4.8995213e-38
-2.1079132e-38
-4.8477092e-34
-9.3164797e-34
-1.3234602e-34
-7.945286e-36
-1.7282581e-40
-3.0059766e-39
-3.5363205e-38
-1.8032413e-38
3.0197916e-34
2.055043e-32
3.4351481e-10
2.4742801e-09
8.113125e-10
1.5450219e-10
6.1955236e-32
1.6322097e-33
9.3270037e-28
4.5916928e-23
7.7421106e-11
1.7126087e-12
6.7550614e-13
5.2699456e-11
6.24098e-23
2.4585847e-27
2.5623349e-22
5.7357016e-18
1.8353089e-11
1.0572438e-23
1.1474581e-22
2.1086969e-11
6.4651422e-18
4.6819115e-22
1.3534804e-18
2.3910356e-13
6.6761147e-12
1.144235e-22
1.5994977e-26
1.0475384e-11
3.9324738e-13
2.0602919e-18
2.073468e-14
6.711083e-13
2.8955101e-12
3.9909607e-23
2.8457066e-23
5.2131655e-12
1.1853196e-12
3.8757958e-14
1.4442019e-13
6.5852506e-13
1.2131596e-12
8.0191694e-40
0
2.316329e-12
1.1923923e-12
2.5791005e-13
2.5685595e-13
5.5961973e-13
3.8341747e-13
-8.4565399e-37
-1.0954775e-51
7.4918447e-13
1.0270601e-12
4.6943472e-13
2.534284e-13
3.8238516e-13
5.6591638e-14
1.5001297e-16
3.2174712e-16
1.125521e-13
7.083115e-13
4.6705337e-13
7.2219975e-08
1.8478652e-17
1.4689787e-12
7.6333952e-09
7.5037618e-09
1.6473871e-12
7.6450014e-17
8.3358366e-08
2.3516212e-08
8.988273e-15
1.5524586e-13
3.0513208e-13
2.0466602e-17
1.2859866e-14
1.5063743e-14
3.3245792e-08
6.4483186e-15
3.743993e-15
1.6378551e-16
1.3296997e-19
8.9201837e-18
6.7849492e-15
3.2237714e-15
8.9943841e-15
6.199863e-16
6.437545e-14
2.048022e-17
6.001634e-20
7.949791e-20
2.631797e-16
8.8659083e-14
9.4425332e-16
1.2880438e-14
3.9359966e-14
2.8018343e-16
5.8994016e-21
2.1701994e-21
1.1081575e-18
9.4211696e-14
3.9790158e-14
2.8565359e-14
2.9651216e-14
3.5583745e-14
4.6980673e-17
3.5180937e-17
1.780007e-13
1.1086167e-13
9.9861945e-14
1.3527006e-13
5.9170203e-14
2.0614443e-13
7.3650302e-16
8.376062e-16
3.9433596e-13
2.5838745e-13
2.3353387e-13
1.8687237e-13
1.3232934e-13
6.5721017e-14
1.2734771e-15
1.8822017e-15
1.1402356e-13
2.9814023e-13
3.4147852e-13
2.5222854e-10
0.00020073748
0.00036939405
1.3133363e-11
6.2752932e-12
0.00030731805
0.00016972309
3.1498943e-11
1.5843486e-10
6.1963308e-06
0.0001714868
1.0603585e-10
6.2934239e-12
0.00014422946
5.7700071e-06
2.5095212e-11
2.0515719e-11
1.4586626e-11
3.2315716e-12
2.7340736e-17
1.107469e-16
9.6483995e-13
1.1996015e-11
9.8989704e-12
1.3964581e-12
6.4369082e-13
6.3330747e-13
1.5161088e-18
3.6626709e-18
2.1587761e-14
7.4366299e-13
1.9654936e-12
4.6353406e-14
3.1440456e-12
2.908932e-12
1.5236558e-16
1.0594104e-16
9.7657607e-16
1.059538e-13
6.7073765e-14
2.9629495e-15
6.0623452e-14
2.4047526e-14
4.5043063e-16
3.6708439e-16
4.0682285e-16
7.1968079e-14
3.8723954e-15
6.2624219e-15
3.5961796e-14
7.0798085e-16
7.5108891e-16
8.6542798e-16
8.2810592e-14
4.3456417e-14
9.0143678e-15
9.4470923e-15
3.6305442e-15
2.5126676e-14
8.7387168e-16
1.2479429e-15
3.8442635e-14
3.9877966e-14
1.7344157e-14
2.5222854e-10
0.00034602264
0.00037126084
1.9998007e-11
1.8068874e-11
0.0003083931
0.00027073206
2.5095194e-11
2.7058315e-10
7.4786661e-05
0.0003711925
1.4067906e-17
4.4592288e-17
0.00030834726
3.8211424e-05
1.9796954e-11
7.7011865e-11
6.7054968e-05
0.00023122497
2.0075993e-17
8.0769806e-17
0.00019358645
1.436759e-05
1.0478418e-11
2.1911368e-11
4.4658129e-05
1.4766747e-05
4.0883702e-18
6.5007141e-18
7.84609e-06
1.5416232e-11
1.1863407e-11
1.6178436e-12
1.8423015e-06
8.6131606e-11
1.5128777e-16
8.7334475e-17
2.7989883e-14
1.8625915e-10
2.0294863e-12
2.7421376e-13
1.4602096e-11
1.9538867e-12
2.3297303e-16
1.4700808e-16
1.5240296e-16
1.3282559e-11
2.5778268e-13
4.0447369e-14
1.0874201e-12
1.6861997e-16
1.6218149e-16
2.7225272e-16
3.0944764e-10
5.1863017e-12
4.584972e-14
1.1052801e-14
6.2506164e-16
1.5711037e-16
1.5140763e-16
1.9113574e-16
1.4085672e-16
4.7589522e-12
1.4964783e-10
6.8377371e-05
0.00019736378
7.875912e-05
5.3086728e-15
3.2279157e-16
6.2470222e-05
6.7234011e-05
3.1502453e-11
0.0019416224
0.001182131
4.7092832e-05
8.0245292e-18
8.4110839e-18
6.3407607e-05
0.00045889124
0.00073777471
8.0277535e-05
0.00045998846
0.00026359179
7.8883739e-18
7.8583003e-18
8.9200477e-05
0.00046558222
3.7338075e-08
3.5070225e-10
4.4582539e-05
0.00011320016
7.8195605e-18
7.3387844e-18
9.3960759e-05
0.00046085617
7.0207803e-05
3.1328844e-05
2.4329314e-07
3.8175706e-11
2.6295544e-17
8.3381038e-18
5.2009444e-05
0.00045360064
7.1302229e-05
3.7759149e-05
1.3083584e-08
8.239785e-14
3.3616818e-17
2.6485099e-17
3.3374612e-06
0.00031815027
4.0691385e-05
3.1513806e-05
1.0275272e-11
5.7345994e-15
4.1977366e-15
7.3545801e-15
2.5891985e-11
1.8754918e-05
4.2917013e-06
3.873594e-05
9.4509638e-06
6.2495463e-16
1.0902351e-14
1.0799162e-13
2.6839802e-14
1.8897353e-08
2.5243066e-07
4.2049967e-05
4.1704584e-05
4.197345e-07
9.6500426e-05
9.1974061e-05
4.1257126e-07
2.9983698e-05
3.6036907e-06
0.0012969822
3.5163905e-05
6.2415328e-17
7.9044169e-18
7.8583003e-18
1.1082286e-17
1.0595836e-05
0.0010759077
9.2893117e-05
0.00011586015
5.9743203e-05
7.8583e-18
7.8518246e-18
2.1270826e-06
3.6590081e-06
3.7468805e-06
0.00021594967
8.5185194e-05
0.00010787807
7.8883739e-18
7.8583003e-18
1.8643495e-05
0.00022384075
8.2468602e-05
0.00020151369
8.1254314e-06
1.4020252e-05
1.040083e-17
8.0110162e-18
4.6085217e-05
0.00044820618
6.7791845e-05
0.00012717267
4.0694424e-08
5.7621801e-14
1.6630724e-15
1.2688937e-17
1.7531081e-05
0.00043836594
7.6658012e-05
0.00016863458
3.950645e-13
2.2512128e-14
1.8366484e-14
1.0323649e-16
4.4507497e-08
0.00015990241
1.6514494e-05
0.00018074414
2.7950594e-05
1.60407e-13
2.3423462e-14
1.3369695e-14
2.0542912e-14
3.5642014e-11
2.4780836e-07
4.2826828e-05
4.2051787e-05
0.0105493
0.0022948743
0.0023060577
0.010361455
2.8060987e-05
1.3187392e-05
0.013600231
3.8708242e-05
0.0018443118
7.8797079e-18
7.8544508e-18
0.0017222308
2.1988964e-05
0.0073630398
0.0012246798
0.00022218315
4.1382932e-07
7.8531179e-18
7.8579951e-18
1.4515057e-17
9.1289132e-05
0.000574343
4.8407709e-05
4.4017686e-05
1.0332202e-05
7.9138146e-18
7.8521494e-18
4.6288971e-13
0.00042357115
7.0675909e-05
0.00032302335
1.9398795e-06
1.8726318e-06
1.1212199e-17
8.0154668e-18
2.1856118e-05
0.00023087933
5.9205434e-05
0.00037321647
0.00017737261
2.1383598e-15
1.0631989e-16
1.2935285e-17
9.142723e-06
8.8353599e-05
1.2336441e-05
0.00035594426
0.00048957411
2.9943582e-14
3.8389182e-15
1.1275712e-16
2.7718815e-15
1.4377407e-05
1.1473793e-05
0.00018596125
0.00031172715
1.373379e-11
1.9694248e-14
1.7139149e-15
1.891959e-14
2.3017434e-08
1.1363082e-05
4.3843896e-05
4.2821306e-05
0.074555924
0.0066169703
0.0066572158
0.074968929
2.9170447e-05
2.5389438e-05
0.018846199
4.3841035e-05
0.020263857
7.8692937e-18
7.8643213e-18
0.020223251
3.0387884e-05
0.02274853
0.0035245066
0.00022643119
6.635825e-09
1.6058804e-17
7.8364357e-18
3.4607635e-12
0.0018011264
0.0022222505
1.2805327e-05
2.3458136e-06
8.1115892e-09
1.4526478e-17
7.8644548e-18
3.7602893e-08
0.00086974909
0.00014501519
0.00045186804
0.00083981165
3.4680646e-14
1.6958844e-17
8.7990874e-18
8.8538446e-07
4.2390067e-06
0.00038188575
0.00031264329
0.0013274297
2.5011202e-08
1.4218988e-16
3.4760023e-17
9.7441579e-08
1.5733593e-07
0.00028061941
0.00016715513
0.00054924217
1.3038362e-07
2.4192575e-15
5.195257e-16
8.6601814e-15
6.8160321e-11
0.0002381723
6.6078421e-05
5.2434999e-05
9.8768753e-11
3.5691062e-14
8.0090967e-15
8.9175575e-14
5.5241068e-12
0.000287873
4.4908741e-05
4.384103e-05
0.17527295
0.0088365954
0.0087967696
0.17506479
3.0387875e-05
3.22588e-05
0.011513978
4.490869e-05
0.08562009
7.9087728e-18
7.8619112e-18
0.086424497
3.2258738e-05
0.018782512
0.0040239563
0.00011462476
0.00052861247
1.7185946e-16
1.8483632e-16
0.00085611689
0.00052681239
0.0053295616
0.00022926215
1.9049018e-05
3.8198979e-07
1.0367872e-16
1.6874871e-16
7.3557353e-07
0.00096441699
0.00039344271
0.00053474289
0.0016949827
1.0297535e-10
7.0674669e-17
3.4646668e-17
1.9542386e-10
0.00023861966
0.00054458456
0.00022681665
0.0013540422
3.1250952e-06
2.6859131e-16
2.4201785e-16
1.1550505e-12
1.049368e-08
0.00052318289
5.5013204e-05
0.0001306021
1.3971943e-07
3.3868698e-15
1.4670214e-15
1.6361685e-14
2.5576568e-10
0.00050963035
1.3087708e-05
7.0202556e-08
6.7701819e-11
4.8035453e-14
1.8384532e-14
4.0609863e-13
2.915931e-11
0.00061220881
4.5884123e-05
4.4908689e-05
0.20495836
0.011383766
0.011389613
0.20317936
3.2258737e-05
3.3796466e-05
0.0080944844
4.5884123e-05
0.14292192
8.7611641e-18
8.7511638e-18
0.14287657
3.3796467e-05
0.011545903
0.0072030974
0.00097786873
0.021864556
1.0940878e-15
1.0004538e-15
0.023390091
0.0024180383
0.012095307
0.00060061599
1.6255183e-05
2.3182782e-10
3.7418227e-16
4.2607061e-16
6.9755047e-10
0.0021130241
0.00042308692
0.00076205804
0.0015937995
1.3211852e-15
2.6847565e-16
3.1263841e-16
2.7631064e-08
0.00025289447
0.00042227476
0.00046638114
0.0031963508
1.8557866e-14
1.3065187e-15
3.4048486e-16
1.0233428e-11
8.8550072e-08
0.0012604269
0.00013741502
0.00063905645
6.5433333e-08
1.8267035e-14
1.741096e-15
2.4587677e-14
8.1443142e-13
0.0010078003
2.4074201e-05
2.0037975e-07
2.9349845e-10
2.1012343e-13
2.8125141e-14
2.057559e-13
3.2206375e-11
0.0010781787
4.7069318e-05
4.5884123e-05
0.2058213
0.022346314
0.022595381
0.20437661
3.3796466e-05
3.5392655e-05
0.0094231616
4.7069319e-05
0.16552833
1.4666827e-17
1.4165439e-17
0.16293171
3.5392655e-05
0.0098561231
0.01289855
0.0021832033
0.060752776
4.0383448e-15
4.5067999e-15
0.062465956
0.0053245909
0.01661937
0.00086828489
0.00027107842
4.2876951e-11
1.7186504e-15
5.7351508e-16
4.7131423e-08
0.0045982008
0.00056140378
0.0016901628
0.0084989282
1.7782162e-05
1.0630114e-15
3.9829378e-16
9.8600285e-08
0.00053244017
0.00061717135
0.00105522
0.0067109866
4.7669709e-08
1.8188668e-15
2.0387958e-15
1.5464783e-13
2.1199308e-07
0.0031834025
0.000174412
0.00029784506
6.0976274e-08
8.9245261e-15
2.2201858e-13
8.1423469e-13
4.4429786e-12
0.0032590834
3.1608849e-05
7.8861401e-07
1.5112507e-10
1.3130976e-13
2.3405221e-13
3.8335419e-12
0.00022499471
0.0029634887
4.8401273e-05
4.7069318e-05
0.20640814
0.037048324
0.037497754
0.20553703
3.5392655e-05
3.6865664e-05
0.010063955
4.8401274e-05
0.17045136
3.7183148e-17
3.8245821e-17
0.16904353
3.6865665e-05
0.0086752346
0.010329578
0.0053868944
0.089144838
1.8362951e-14
2.4049307e-14
0.090656788
0.011667116
0.0083768703
0.0024815646
0.00089932056
0.0012567977
2.0010335e-15
6.6104636e-15
0.002206653
0.0074830024
0.0034102439
0.0035449947
0.0068429887
1.9860207e-08
1.8258508e-15
2.0437366e-14
5.3641308e-11
0.00013278401
0.0028892283
0.0026761304
0.019334747
4.2251735e-14
3.9035476e-15
4.0795344e-14
1.275943e-12
6.1958939e-07
0.0053976325
0.00063549507
0.0037687198
1.5265037e-07
4.2293196e-14
1.5217774e-12
4.4420294e-12
3.6127291e-10
0.0063176786
4.2023645e-05
1.9916368e-08
2.050422e-10
5.6737143e-13
1.7405906e-11
1.1845004e-10
0.00079049706
0.0061338686
4.9970844e-05
4.8401273e-05
0.23177559
0.045890987
0.046339112
0.23185281
3.6865664e-05
3.8570133e-05
0.01340866
4.9970846e-05
0.18557986
1.3121319e-16
1.5782442e-16
0.18553439
3.8570134e-05
0.013509547
0.014318128
0.0079012624
0.10226499
7.4126559e-14
9.9903406e-14
0.10346524
0.011386737
0.016686674
0.0037248971
0.002020153
0.0043085649
1.2542679e-14
4.927798e-14
0.0056117442
0.0052691745
0.0038941446
0.0069297397
0.0031392769
7.2010142e-12
1.4517976e-14
5.8061505e-14
1.4217157e-10
0.00016823672
0.0044240316
0.0078092086
0.030902341
3.0611108e-12
4.2303963e-14
2.6717403e-13
4.5621809e-12
0.0038644395
0.0089943398
0.0034469653
0.014058607
3.5919663e-07
5.6793479e-13
4.4875129e-12
6.8966347e-11
0.014088025
0.0086125074
0.00049535449
9.1612578e-07
1.4437159e-09
4.2346794e-11
7.73988e-11
1.2229347e-08
0.0082700712
0.0042046301
5.1832819e-05
4.9970844e-05
0.2848258
0.053778673
0.05412921
0.2763819
3.8570133e-05
4.0542493e-05
0.01676375
5.1833762e-05
0.22318681
4.9812506e-16
6.4442021e-16
0.21898007
4.0542801e-05
0.017349217
0.0086250218
0.006124335
0.12203081
3.0782458e-13
3.7567772e-13
0.1220734
0.0077826574
0.023927756
0.0052801381
0.002285183
0.0077727989
1.3248071e-13
1.6012378e-13
0.010508267
0.019147793
0.0043163374
0.019666078
0.006433204
2.0752551e-10
1.470542e-13
1.1911849e-13
1.1123462e-06
0.018996041
0.0050186287
0.015747357
0.032531189
1.6883879e-11
8.524556e-13
3.6653842e-13
8.9106363e-11
0.018563902
0.0073717754
0.01004151
0.028417799
1.0807773e-06
1.6568505e-11
4.9876039e-12
6.0886083e-07
0.016147629
0.0073626376
0.0024471408
0.0034344672
3.4339154e-09
7.9517814e-10
7.789531e-11
2.131666e-08
0.0031337593
0.0033358302
5.4002413e-05
5.1832845e-05
0.30656358
0.06959971
0.069620158
0.30043924
4.0542496e-05
4.291347e-05
0.021988956
5.4002414e-05
0.25539083
1.9473808e-15
2.4304752e-15
0.25070559
4.291347e-05
0.025841841
0.009510129
0.0034968971
0.15068504
1.3703447e-12
1.5532673e-12
0.15232159
0.031452918
0.01545407
0.0063405486
0.0024984565
0.016453337
5.2621032e-13
6.7561272e-13
0.018653194
0.027071214
0.0045881149
0.025660077
0.027947422
3.8141306e-10
3.7715167e-13
6.3955792e-13
2.3806615e-06
0.0060393636
0.0086558107
0.014458241
0.034125981
1.846038e-11
1.2342249e-12
8.0252481e-13
1.0029847e-09
0.00088508811
0.018271477
0.0092391494
0.030182241
1.7850769e-06
1.852267e-11
5.2332232e-12
8.38783e-11
0.0093890626
0.013174486
0.0024374175
0.0030272287
6.8755491e-09
3.2562429e-10
8.1835228e-11
1.1850259e-09
0.01199909
0.0060558393
5.6513535e-05
5.4002413e-05
0.319031
0.09958351
0.099292908
0.31832486
4.291347e-05
4.6551129e-05
0.030471084
5.6513527e-05
0.27480415
7.8216107e-15
8.8490564e-15
0.27843467
4.6551118e-05
0.069596715
0.035326255
0.0017261564
0.18061238
6.9739883e-12
6.4074595e-12
0.18443406
0.036081414
0.015699409
0.0066900796
0.035601978
0.036032834
2.2709013e-12
2.4354525e-12
0.031439946
0.024346729
0.0049797873
0.0089068571
0.03851702
1.128007e-05
2.1115997e-12
2.9073986e-12
2.7930045e-06
0.00091211844
0.012424324
0.01087727
0.035028114
1.4017324e-06
2.4970082e-12
1.3603659e-11
1.7756404e-08
5.2660297e-06
0.028852684
0.0046413596
0.0073428059
5.6950321e-07
1.4498278e-11
2.1234932e-11
2.1574486e-10
3.0140365e-08
0.024369214
0.002093317
0.00018295795
4.2577836e-09
2.4874808e-10
1.2023742e-09
2.1397047e-09
0.021138107
0.012262549
5.9536765e-05
5.6513526e-05
0.34719599
0.14277256
0.14509616
0.34162517
4.6551118e-05
5.1879866e-05
0.046455363
5.9537353e-05
0.29922797
3.4531716e-14
3.1951108e-14
0.30178228
0.0026163923
0.11844624
0.067003191
0.068638214
0.21344928
4.1110899e-11
2.5727998e-11
0.20951186
0.025196778
0.0063344449
0.0068600295
0.060052875
0.057204986
7.0730481e-12
6.4158261e-12
0.048998075
0.020505855
0.005670775
0.0068600295
0.013922494
2.399115e-09
5.5011794e-12
6.134675e-12
1.3088976e-05
0.0015510896
0.025822249
0.011268141
0.00045398654
6.5982221e-09
4.4992216e-12
6.9845479e-12
1.4797827e-09
6.7225544e-06
0.038117566
0.011449775
7.5150629e-08
1.2880851e-10
1.9889217e-11
2.0040709e-11
3.181846e-10
3.6053963e-08
0.036209098
0.011532065
0.00082595203
1.720034e-09
1.3295994e-10
1.5900897e-09
1.5615519e-09
0.024444368
0.020725775
6.2749905e-05
5.9536767e-05
0.37223047
0.18690549
0.20409981
0.37862529
5.1879862e-05
5.7455007e-05
0.054635071
6.2753483e-05
0.33636617
1.595522e-13
1.1391269e-13
0.33843458
0.016203812
0.11537312
0.079214255
0.043415353
0.24595247
7.7216554e-11
7.9260445e-11
0.24199177
0.023071857
0.0077171946
0.0070437744
0.017353621
0.076646188
1.406106e-11
1.1829581e-11
0.072525979
0.015981261
0.0069374726
0.012771082
0.017109716
1.2692186e-09
7.090859e-12
7.9855961e-12
7.3709294e-09
0.0010874994
0.035101989
0.0229746
0.057421352
1.1091503e-11
6.5119254e-12
7.6937443e-12
1.6827539e-11
0.00012002695
0.038254373
0.017390332
0.027079961
1.5082069e-06
1.0244985e-11
1.650106e-11
2.3389351e-10
0.016737426
0.038305592
0.011048508
0.0037551009
2.132879e-08
9.4477983e-11
2.5109602e-10
1.1128107e-09
0.034375464
0.033049153
6.5665509e-05
6.2749929e-05
0.37805064
0.24047072
0.27634366
0.41420136
5.7455007e-05
6.2508974e-05
0.057805449
6.5679952e-05
0.34730834
3.9699695e-13
3.3109044e-13
0.40899151
0.027269804
0.10799114
0.078146751
0.0036046037
0.28106058
4.0976327e-11
9.2936296e-11
0.31043272
0.023071799
0.0091897093
0.0073889996
0.032580897
0.11973705
1.4895354e-11
1.4410847e-11
0.11711442
0.017577682
0.0087214479
0.017165857
0.066924999
0.00031980154
7.4815634e-12
1.0428617e-11
4.3793054e-10
0.010062674
0.040612583
0.020017446
0.060683073
8.2921138e-08
7.7412907e-12
9.4195617e-12
6.7166672e-08
0.020532635
0.032054969
0.012004078
0.028184033
1.2948162e-06
2.459429e-11
1.5619867e-11
1.7400802e-10
0.036516781
0.03829842
0.0030087698
0.0014838988
3.0376729e-08
2.1241292e-08
1.7400273e-10
1.0554854e-09
0.035855201
0.028175674
6.9198449e-05
6.5665678e-05
0.38737759
0.31355211
0.34883323
0.4148277
6.2508974e-05
0.013482926
0.11257184
6.9217752e-05
0.33415667
5.656365e-13
0.00015723097
0.414573
0.037024031
0.12732871
0.065378206
0.00079214192
0.29887793
1.3165034e-12
2.053049e-12
0.37330012
0.025598551
0.010356984
0.0077239969
0.093540682
0.17281902
1.2940863e-11
1.2737001e-11
0.19925907
0.065443862
0.014913794
0.017558236
0.067664586
0.0070575124
9.3348825e-12
9.5415295e-12
0.0051506159
0.053680415
0.066961016
0.039237044
0.023301533
2.5900972e-11
1.2018152e-11
1.1863587e-11
2.5021674e-10
0.028751889
0.0053300269
0.011694387
0.016120314
5.2111603e-08
2.3943475e-11
2.887879e-11
7.7794959e-10
0.021577599
0.011413361
0.012461574
0.0024768104
9.9836683e-09
3.1851918e-08
4.3586235e-08
1.6269173e-09
0.016966351
0.013018109
7.3266351e-05
6.9198514e-05
0.41045709
0.38719127
0.3815341
0.42201746
9.3191889e-05
0.018349211
0.12795247
7.3275554e-05
0.32026122
1.3165034e-12
2.053049e-12
0.37217474
0.055756533
0.1721036
0.092618669
0.017507096
0.29606396
2.0331497e-12
2.0331497e-12
0.3436855
0.037967585
0.011317648
0.0081173857
0.06406258
0.19338671
9.7587265e-12
9.5620998e-12
0.2102986
0.036437349
0.019777402
0.026727592
0.037467781
0.015468036
9.5880829e-12
7.9294873e-12
0.013459993
0.074194712
0.06806572
0.049941947
0.0039023079
5.5767422e-11
1.1543244e-11
7.678102e-12
2.1148651e-09
0.04037864
0.005111842
0.034164991
0.014316388
2.1163738e-10
1.5983657e-11
3.0879434e-11
1.7216799e-08
0.0052816323
0.00492335
0.034028206
0.031400238
5.2159249e-10
1.2260986e-08
6.4669968e-08
3.7746143e-08
0.00030047433
0.004609708
7.6772997e-05
7.326635e-05
0.45818993
0.4704661
0.48278275
0.48226718
0.031319413
0.17465447
0.10280917
7.6772994e-05
0.33590241
3.4198228e-10
7.4880937e-09
0.40667555
0.092983803
0.04864033
0.11712017
0.0092677204
0.30161824
2.2717915e-05
2.053049e-12
0.33973725
0.060149175
0.013058679
0.0086213807
0.054540301
0.20956085
3.5576382e-12
2.3247712e-12
0.2060846
0.037197843
0.05203561
0.032688272
0.07578342
0.027993216
8.1639091e-12
6.57491e-12
0.020308062
0.07490381
0.074794161
0.050784611
0.057398961
9.3071868e-07
7.4903207e-12
6.7150824e-12
3.895331e-06
0.066090714
0.014793285
0.023196856
0.044155478
1.9980013e-10
9.7128946e-12
3.5854019e-11
9.2608867e-10
0.019932917
0.0084817688
0.029992321
0.033147293
4.1051424e-10
6.2863179e-09
2.6505888e-08
5.0480724e-08
4.8466727e-08
0.0056477154
8.0213416e-05
7.6772994e-05
0.53620856
0.5754615
0.60627094
0.60803739
0.16461927
0.18890948
0.097655338
8.0213415e-05
0.41596993
0.019550866
0.024584096
0.52698985
0.073504013
0.016457899
0.13274462
0.043075901
0.35105033
0.011223784
0.0010078749
0.39560473
0.06706001
0.014761232
0.0090940429
0.10335398
0.25836555
2.7666708e-12
1.0946124e-06
0.23119362
0.074961038
0.044419421
0.024495575
0.075930267
0.060870435
7.1034714e-12
6.8427208e-12
0.033454132
0.075037293
0.074999248
0.061007647
0.036767304
1.9347612e-08
7.1261294e-12
8.8805149e-12
6.8577405e-06
0.058487126
0.055110878
0.0019420684
0.033617958
3.6173764e-09
3.4342455e-11
1.2370831e-11
1.5652576e-10
0.020359719
0.016724764
0.007363533
0.021113988
3.6068956e-08
3.1407539e-08
1.482738e-08
5.0311636e-08
4.5541191e-08
0.011688588
0.00033483966
0.024498942
0.60260442
0.61195831
0.61206063
0.61200023
0.099125397
0.056857233
0.082332881
0.00073247755
0.55375175
0.051776295
0.13901701
0.58962506
0.0094614138
0.058119367
0.22172733
0.051756269
0.47288692
0.023560409
0.02077157
0.51014127
0.1014723
0.16074568
0.034676798
0.092653246
0.32781921
0.00015197538
0.00027731181
0.32501265
0.099545379
0.035696591
0.024915148
0.032450588
0.077609231
8.1817927e-09
8.9818904e-09
0.073473903
0.067088998
0.035125299
0.083179719
0.058489275
2.0462307e-06
2.602336e-11
1.0003763e-08
7.8730033e-09
0.024663273
0.077755664
0.014027302
0.045434694
1.6751804e-08
3.3133402e-11
1.5923138e-10
2.8832464e-10
0.009793953
0.039288865
0.0075297257
0.012398603
3.7978585e-07
9.5849469e-10
2.6721739e-08
1.8123175e-08
8.3538648e-08
0.016782813
0.00062386116
0.10613914
0.61212103
0.61212103
0.61212103
0.51605471
0.15383511
0.038214434
0.028031876
0.0012890891
0.58589272
0.20806666
0.47900881
0.45109963
0.0007811168
0.047173159
0.1478706
0.077521064
0.54334632
0.014636293
0.10154789
0.50790224
0.10691034
0.16223491
0.17687059
0.092232461
0.35127563
3.3016639e-05
0.0012708921
0.42479234
0.091265493
0.10718458
0.051053108
0.071538394
0.07295573
1.752015e-09
3.4330346e-07
0.11542595
0.034362937
0.027655483
0.083384067
0.1522221
1.4197542e-08
9.4041237e-11
6.919454e-07
2.7595408e-05
0.0017812358
0.077847794
0.059212432
0.091225967
1.5459158e-07
1.3157985e-10
2.9311769e-10
1.915016e-09
0.0025384155
0.078180737
0.017520988
0.016299446
1.5055667e-06
2.414997e-10
2.1666437e-08
5.0532784e-09
0.017637049
0.041041009
0.0018043616
0.19694825
0.61210342
0.61212103
0.53159259
0.41975293
0.27674345
0.038080704
0.0090959876
0.0015196872
0.54111411
0.58299182
0.61036235
0.33511987
0.00069561105
0.0094888014
0.06857809
0.090671803
0.54238267
0.10049244
0.23009261
0.50527975
0.10159478
0.14240471
0.17372876
0.11983997
0.38796997
4.1084341e-06
9.6879987e-06
0.40405159
0.066686182
0.1667627
0.17564684
0.17560499
0.079801623
2.8856198e-07
2.2059074e-07
0.10007433
0.025837543
0.055965672
0.069005073
0.16648333
1.6332269e-07
6.8646353e-10
3.2409398e-07
0.00019047333
0.00032852584
0.069227702
0.064947256
0.099481226
4.5507153e-10
4.1314285e-10
1.6386165e-09
2.0803248e-09
0.027688506
0.07818726
0.032394865
0.023047566
4.7698962e-06
4.5491574e-10
4.9497928e-09
3.5086822e-09
0.059929657
0.065750982
0.040156986
0.31837338
0.55734155
0.61210342
0.44038729
0.4136686
0.33948187
0.018087692
0.0067510403
0.10993398
0.41564725
0.61201043
0.61158797
0.30752185
0.00054340199
0.00048991622
0.064854435
0.044743607
0.53486294
0.40773811
0.54640931
0.51983771
0.09073078
0.063916194
0.16876803
0.14621611
0.47339499
0.033072784
0.096303693
0.30760326
0.15361383
0.16026022
0.15464764
0.18569795
0.1742473
5.7770344e-06
7.2113826e-06
0.059093652
0.047119623
0.18690932
0.084767062
0.14890857
0.00037879459
6.8467861e-08
8.6394874e-08
2.5997015e-08
0.03973948
0.059803009
0.071709979
0.085296609
3.3777132e-08
7.411233e-10
1.8621333e-09
3.5086827e-09
0.079098137
0.076376708
0.041887898
0.023267759
4.1537337e-06
1.0449657e-09
1.6243251e-09
3.1541037e-09
0.046003543
0.050090736
0.083788683
0.39500116
0.32766843
0.61108222
0.49384087
0.423669
0.42123926
0.019107388
0.0062013335
0.24328548
0.26226747
0.61158801
0.59283301
0.31283688
0.0032581179
0.00046056693
0.087495349
0.030589763
0.41174324
0.61095923
0.61007522
0.55512772
0.068680024
0.0014990309
0.1074216
0.14965959
0.47287305
0.18209811
0.38158419
0.31045641
0.3088992
0.081606941
0.036148772
0.17780617
0.20746186
3.4919284e-05
0.02755631
0.054446501
0.13064543
0.20558586
0.037850367
0.085173938
0.0010236468
1.4319861e-06
9.6034823e-07
4.8083629e-08
0.075128197
0.14267637
0.059798271
0.038022105
2.9907881e-05
9.5405675e-09
2.5776783e-08
2.5808976e-08
0.081171418
0.084752837
0.034663536
0.015738032
3.9175877e-07
1.8592334e-09
2.3682149e-09
1.1181929e-06
0.033813654
0.041499189
0.1916736
0.40773553
0.26373777
0.60850351
0.50056764
0.39985314
0.47926682
0.039922775
0.0020935882
0.25984529
0.2676713
0.61096245
0.4375595
0.3633124
0.082702435
0.00033454078
0.046514427
0.025373869
0.26407708
0.61058063
0.60997079
0.60946733
0.009107255
0.00034515431
0.037578265
0.11404062
0.46465517
0.36308751
0.47251266
0.49274622
0.23033712
0.080912879
0.0011335595
0.14352949
0.12967616
0.012963871
0.055375068
0.15028995
0.20495697
0.20536617
0.012607266
0.015346834
5.0330834e-06
1.723018e-06
8.9317623e-05
1.5566005e-06
0.042436493
0.13926528
0.03957258
0.0030467141
1.8451762e-05
5.0891937e-08
4.2547306e-07
5.0495502e-08
0.044081867
0.081166143
0.03902668
0.0034031089
1.8045435e-08
7.8053726e-09
2.5585889e-08
6.4417109e-08
0.015380308
0.051065269
0.38865728
0.4273709
0.26328234
0.60930547
0.48663022
0.32332868
0.51334926
0.14311154
0.0019429631
0.31524592
0.26624167
0.59824286
0.41743323
0.39438714
0.44831185
0.00026856221
0.0017865826
0.019153176
0.25227366
0.61022243
0.60952407
0.60936285
0.11917722
0.0074659433
0.0022366466
0.031144674
0.37528124
0.5775135
0.41997239
0.60498626
0.088850037
0.075308697
0.0012616617
0.096598939
0.10715748
0.080615101
0.056184892
0.39853537
0.18534922
0.20553703
0.0055496713
7.1171109e-06
5.967148e-06
6.1139215e-06
2.4513415e-05
0.029089061
0.049254597
0.1128172
0.028351489
5.967148e-06
5.7932978e-06
3.3245923e-07
7.0321607e-08
3.2947374e-06
0.016485406
0.054126071
0.035146301
1.8083939e-05
2.8945871e-08
2.4725482e-08
3.5379225e-08
6.7514554e-08
0.0031008111
0.05394047
0.50526682
0.37060893
0.26319269
0.61118159
0.48502867
0.2556043
0.51333882
0.33669527
0.17880114
0.36260116
0.26318898
0.60584749
0.40333486
0.25533592
0.51331971
0.00021981522
0.00096003129
0.17035517
0.41755026
0.61086258
0.61022267
0.54808856
0.47408961
0.0078625104
0.00092819707
0.052723725
0.39651327
0.61077267
0.46880376
0.60583582
0.14942663
0.022367248
0.0009154109
0.041306049
0.18208702
0.25340207
0.10657977
0.60123168
0.14268756
0.1169178
0.0035218591
0.0013888731
0.0038131355
0.0005868491
0.0044582736
0.25881272
0.091452222
0.098345644
0.014014591
3.9647441e-06
9.5972448e-08
1.3260669e-06
1.8922023e-06
0.0026268358
0.025279377
0.018208295
0.0097809335
9.5743351e-08
2.9951957e-08
3.3881477e-08
4.5540451e-08
1.200661e-06
0.0025588455
0.039747345
0.41173804
0.46516265
0.41156105
0.61118335
0.40563576
0.33949467
0.4574942
0.46395533
0.2618122
0.38138909
0.26310518
0.61111638
0.32792825
0.24457136
0.43555322
0.088438464
0.041110986
0.45562722
0.59220716
0.61091211
0.61082112
0.46437507
0.50339332
0.00039182583
0.0019543199
0.13571727
0.55952753
0.61080964
0.60692079
0.60752888
0.38807031
0.00031174715
0.0010093029
0.034272113
0.2883211
0.54004261
0.32865921
0.60598275
0.16061242
0.007068047
0.0028362817
0.00078774989
0.010458588
0.11397895
0.069998037
0.50853552
0.091369507
0.046911809
0.0053401321
8.2997682e-07
9.7311939e-07
2.9319585e-05
0.0064825694
0.13181766
0.043857894
0.0088038709
0.00088324667
4.3314279e-07
7.7107452e-08
2.4980651e-07
0.00032842755
0.0041136575
0.0055607794
0.0030914535
0.35798469
0.46792012
0.59021269
0.61111654
0.37573321
0.39576024
0.34889426
0.46355415
0.15205778
0.22262148
0.26929777
0.61022024
0.29275114
0.24444106
0.2649261
0.32600705
0.20315625
0.30094384
0.57158439
0.61082621
0.59752013
0.55802425
0.5579985
0.0859939
0.022280453
0.34110379
0.61078504
0.61082136
0.61082634
0.60873066
0.47708012
0.00028167468
0.0026899839
0.084300281
0.45543957
0.59633032
0.29616307
0.60792311
0.23071983
0.00023510295
0.0014626671
0.010705826
0.041492197
0.16025778
0.10885253
0.60498015
0.084128046
0.0017262299
0.0012256007
0.00076115618
1.3261108e-07
4.8662464e-05
0.035793601
0.36280521
0.041515417
0.01106585
0.0017323024
1.326029e-07
3.6315912e-08
9.0273706e-07
0.0033131758
0.035784652
0.0071391692
0.00022452811
0.37646562
0.4597227
0.57316613
0.60006132
0.33354325
0.42462494
0.30922762
0.48723988
0.1806313
0.1275052
0.25003012
0.4076403
0.18481765
0.26659644
0.17596136
0.43722848
0.39367216
0.11065981
0.41018106
0.61082127
0.42969953
0.59860113
0.42831894
0.37770213
0.097141109
0.47689537