/*--------------------------------*- C++ -*----------------------------------*\
  =========                 |
  \\      /  F ield         | OpenFOAM: The Open Source CFD Toolbox
   \\    /   O peration     | Website:  https://openfoam.org
    \\  /    A nd           | Version:  13
     \\/     M anipulation  |
\*---------------------------------------------------------------------------*/
FoamFile
{
    format      ascii;
    class       volScalarField;
    location    "0.1";
    object      p;
}
// * * * * * * * * * * * * * * * * * * * * * * * * * * * * * * * * * * * * * //

dimensions      [1 -1 -2 0 0 0 0];

internalField   nonuniform List<scalar> 
51200
(
0.83661214
0.82276757
0.81467221
0.81153194
0.81153043
0.81466787
0.82276103
0.83660429
0.82628029
0.81306782
0.80566554
0.80287097
0.80286952
0.80566133
0.81306142
0.82627249
0.81694384
0.80457116
0.79782946
0.7953235
0.7953221
0.79782539
0.80456494
0.8169361
0.80933822
0.79785522
0.79175908
0.78949945
0.78949811
0.79175517
0.7978492
0.80933059
0.8028976
0.79228935
0.78682436
0.78478202
0.78478074
0.78682061
0.79228355
0.80289011
0.79727944
0.78751518
0.78265693
0.78080919
0.78080797
0.78265334
0.7875096
0.79727212
0.79237019
0.78338093
0.77910162
0.77743213
0.77743097
0.77909819
0.7833756
0.79236307
0.78813684
0.7797078
0.77601015
0.77450948
0.77450838
0.7760069
0.77970271
0.78812996
0.74815499
0.74755494
0.74719771
0.74673438
0.74673274
0.74719301
0.74754781
0.74814635
0.74920651
0.74872398
0.74834619
0.74788045
0.74787887
0.74834164
0.74871702
0.74919792
0.75038764
0.75007479
0.74967835
0.74920606
0.74920455
0.74967395
0.75006805
0.75037913
0.75159173
0.75142386
0.75100477
0.75052681
0.75052536
0.75100054
0.75141735
0.75158334
0.75280649
0.7527203
0.75227591
0.75179707
0.75179569
0.75227186
0.75271403
0.75279827
0.75398166
0.75390925
0.75344179
0.75296902
0.7529677
0.75343794
0.75390325
0.75397364
0.75506228
0.75494881
0.75446443
0.7540047
0.75400344
0.75446076
0.75494307
0.75505449
0.75593808
0.75577043
0.75527647
0.75483248
0.75483129
0.755273
0.75576499
0.75593057
0.75095013
0.74960055
0.74877867
0.74838384
0.74838187
0.74877289
0.74959179
0.75093956
0.75124623
0.74991059
0.74914945
0.74876891
0.74876701
0.74914384
0.74990205
0.75123571
0.75152182
0.75021957
0.74952332
0.74915531
0.74915348
0.74951789
0.75021127
0.75151137
0.75163343
0.75038062
0.74975574
0.74940542
0.74940367
0.74975051
0.75037258
0.75162308
0.75162155
0.75043987
0.74988837
0.74956024
0.74955856
0.74988335
0.75043211
0.75161136
0.75154812
0.75045039
0.74997048
0.74966845
0.74966685
0.74996567
0.75044294
0.75153812
0.75141593
0.75041224
0.75000763
0.74973783
0.74973631
0.75000305
0.75040512
0.75140617
0.75106672
0.75025011
0.74994321
0.74971603
0.7497146
0.74993888
0.75024334
0.75105729
0.74030224
0.74008977
0.7401395
0.74023409
0.74023156
0.74013201
0.74007852
0.74028884
0.74050141
0.74033928
0.74039647
0.74046994
0.7404675
0.74038922
0.74032832
0.74048805
0.74070316
0.74058669
0.74065588
0.74071122
0.74070886
0.74064886
0.74057602
0.74068987
0.74088953
0.74081026
0.74089471
0.74093742
0.74093516
0.74088794
0.74079991
0.74087635
0.74106655
0.74102179
0.74112361
0.74115806
0.7411559
0.7411171
0.74101178
0.74105353
0.74124523
0.74123169
0.74135105
0.74138065
0.74137859
0.74134481
0.74122206
0.74123241
0.74142252
0.74144482
0.74158137
0.7416102
0.74160824
0.74157542
0.74143558
0.74140997
0.74153294
0.74167386
0.74182579
0.74186047
0.74185862
0.74182014
0.74166504
0.74152077
0.73483285
0.734661
0.73476877
0.73496553
0.73496209
0.73475858
0.73464589
0.73481506
0.73493503
0.73480109
0.7349199
0.73509461
0.73509129
0.73491003
0.73478634
0.73491728
0.73504397
0.73494536
0.7350773
0.73523269
0.73522949
0.73506775
0.73493101
0.73502631
0.73513535
0.73506677
0.73521548
0.7353577
0.73535463
0.73520626
0.73505283
0.73511782
0.7352123
0.73517156
0.73534061
0.73547471
0.73547177
0.73533174
0.73515806
0.73519495
0.73528173
0.73526651
0.73545886
0.73558881
0.73558601
0.73545036
0.73525347
0.73526462
0.7353392
0.73535769
0.73557646
0.73570646
0.73570379
0.73556834
0.73534516
0.7353224
0.73535369
0.73548113
0.73572593
0.73586134
0.7358588
0.7357182
0.73546913
0.73533736
0.72954737
0.72947351
0.72964263
0.729876
0.72987122
0.72962857
0.72945294
0.72952347
0.72961215
0.72957278
0.72974902
0.7299604
0.72995579
0.72973539
0.72955269
0.72958829
0.72968187
0.72967439
0.72985897
0.730051
0.73004657
0.72984578
0.72965482
0.72965811
0.72974559
0.72976374
0.72995839
0.73013622
0.73013196
0.72994566
0.72974471
0.72972199
0.72980494
0.72984427
0.73005105
0.73021891
0.73021483
0.73003879
0.72982582
0.72978156
0.72986316
0.72991915
0.73014014
0.73030142
0.73029752
0.73012836
0.7299013
0.72984007
0.72991711
0.72999234
0.73022959
0.73038786
0.73038414
0.73021832
0.72997513
0.72989441
0.72994819
0.73009066
0.73034347
0.73050328
0.73049974
0.73033274
0.73007413
0.72992608
0.72486768
0.72481329
0.72495608
0.72516057
0.72515386
0.72493643
0.72478493
0.72483514
0.72490796
0.7248802
0.72502988
0.7252168
0.72521032
0.72501083
0.72485248
0.72487548
0.72495193
0.72494905
0.72510611
0.72527744
0.7252712
0.72508767
0.72492201
0.72491956
0.72499216
0.72500971
0.72517512
0.72533482
0.72532882
0.72515731
0.72498338
0.72495997
0.72502979
0.72506464
0.72523976
0.72539109
0.72538535
0.72522259
0.72503907
0.72499788
0.72506735
0.72511636
0.72530261
0.72544819
0.72544269
0.7252861
0.72509159
0.7250358
0.72510348
0.7251682
0.72536669
0.7255092
0.72550396
0.72535087
0.72514428
0.72507244
0.72512633
0.72523806
0.72544772
0.72559041
0.72558542
0.72543263
0.72521503
0.72509604
0.720482
0.72044124
0.72054533
0.72070321
0.72069369
0.72051771
0.7204019
0.72043746
0.72050817
0.72048744
0.72059798
0.72074312
0.72073394
0.7205712
0.72044893
0.72046366
0.72053708
0.7205352
0.7206523
0.7207861
0.72077726
0.72062637
0.72049757
0.7204927
0.72056395
0.7205775
0.72070141
0.72082662
0.72081812
0.72067634
0.72054081
0.7205198
0.72058942
0.72061583
0.72074718
0.72086613
0.72085797
0.720723
0.72058015
0.72054561
0.72061511
0.72065186
0.72079141
0.72090602
0.72089821
0.72076814
0.72061725
0.72057176
0.72064017
0.72068788
0.72083611
0.72094835
0.72094089
0.7208138
0.72065442
0.72059746
0.72065587
0.72073521
0.720891
0.72100312
0.72099601
0.7208697
0.72070296
0.72061415
0.71629647
0.71626195
0.7163247
0.7164331
0.71641951
0.71628561
0.71620692
0.71623512
0.71631402
0.71629411
0.71636296
0.71646305
0.71644994
0.71632502
0.71624011
0.71625267
0.71633357
0.71632746
0.71640236
0.71649508
0.71648243
0.71636559
0.71627461
0.71627232
0.71635182
0.71635693
0.71643773
0.71652488
0.7165127
0.71640214
0.71630532
0.71629083
0.71636915
0.71638344
0.71647032
0.71655348
0.71654179
0.71643598
0.71633317
0.71630857
0.71638665
0.7164081
0.71650142
0.71658193
0.71657074
0.71646836
0.71635928
0.71632666
0.7164038
0.71643253
0.71653239
0.71661162
0.71660093
0.71650068
0.7163853
0.71634464
0.7164142
0.71646419
0.71656944
0.71664888
0.7166387
0.71653915
0.71641865
0.71635636
0.71225137
0.71222112
0.71224855
0.71231249
0.71229296
0.71219285
0.71214365
0.71216644
0.71226373
0.71224394
0.71227695
0.71233613
0.71231726
0.7122228
0.71216772
0.71217869
0.71227754
0.71226764
0.71230613
0.71236115
0.71234294
0.71225358
0.71219284
0.71219253
0.71229038
0.71228837
0.712332
0.71238401
0.71236647
0.71228111
0.71221517
0.71220563
0.71230248
0.71230667
0.71235544
0.71240545
0.71238859
0.7123063
0.71223528
0.7122182
0.71231458
0.71232329
0.71237736
0.71242627
0.71241012
0.71233005
0.71225391
0.71223103
0.71232632
0.71233944
0.71239875
0.71244747
0.71243206
0.71235337
0.71227229
0.71224386
0.71233304
0.71236043
0.7124239
0.71247335
0.71245868
0.71238056
0.7122957
0.71225236
0.70831604
0.70828977
0.70828845
0.70831372
0.70828514
0.70820754
0.70817854
0.70819686
0.70832545
0.70830646
0.70830991
0.70833305
0.70830539
0.70823105
0.70819658
0.7082058
0.7083359
0.70832374
0.7083319
0.70835333
0.70832659
0.7082552
0.70821562
0.70821595
0.70834544
0.70833849
0.70835107
0.70837149
0.70834572
0.7082767
0.70823252
0.70822557
0.70835421
0.70835104
0.70836803
0.7083881
0.70836334
0.7082962
0.7082476
0.70823481
0.70836272
0.70836189
0.70838345
0.70840379
0.70838009
0.70831435
0.70826138
0.70824422
0.70837068
0.70837199
0.7083981
0.70841931
0.70839671
0.70833193
0.70827484
0.70825368
0.70837459
0.70838544
0.70841523
0.70843784
0.70841638
0.70835218
0.70829199
0.70826016
0.70447576
0.70445061
0.70442505
0.70441542
0.70437362
0.70430726
0.70435195
0.70430312
0.70448375
0.70446337
0.70444148
0.70443156
0.70439093
0.70432505
0.704304
0.70431352
0.7044925
0.70447632
0.70445826
0.70444839
0.70440906
0.70434501
0.7043198
0.70432064
0.70450001
0.70448685
0.70447254
0.7044632
0.70442528
0.70436291
0.70433338
0.70432749
0.70450645
0.70449519
0.70448477
0.70447643
0.70444002
0.70437903
0.70434532
0.70433436
0.70451229
0.7045017
0.70449543
0.7044886
0.70445378
0.7043939
0.70435611
0.70434145
0.70451721
0.70450713
0.70450516
0.70450028
0.70446712
0.70440817
0.70436658
0.70434865
0.70451843
0.70451494
0.70451667
0.70451402
0.7044826
0.70442448
0.70437994
0.70435383
0.70074327
0.70070793
0.70065235
0.70060366
0.70053923
0.70046738
0.70070538
0.70046662
0.70075073
0.7007176
0.70066488
0.70061725
0.70055424
0.70047875
0.70048178
0.70048681
0.70075988
0.70072734
0.70067767
0.70063142
0.70057031
0.70049912
0.70049419
0.70049125
0.70076575
0.70073417
0.70068799
0.7006437
0.70058498
0.70051743
0.70050505
0.70049571
0.70076943
0.70073828
0.70069616
0.7006544
0.70059834
0.70053332
0.7005146
0.70050082
0.70077162
0.70074
0.70070258
0.70066392
0.70061064
0.70054761
0.70052317
0.70050631
0.70077192
0.70073997
0.70070779
0.70067272
0.70062232
0.70056107
0.70053149
0.70051193
0.70076763
0.70074122
0.70071413
0.70068297
0.70063562
0.70057598
0.70054224
0.70051618
0.69734769
0.69706544
0.69695019
0.69685717
0.6967801
0.69810739
0.69692474
0.69692061
0.69719108
0.69704466
0.69695903
0.69686812
0.69677682
0.69669516
0.69671915
0.69670871
0.69717579
0.69704927
0.69696843
0.69687996
0.69679074
0.69672155
0.69672343
0.69671066
0.69716262
0.69705203
0.6969756
0.69689051
0.69680489
0.69674008
0.69673053
0.69671304
0.69715103
0.69705245
0.69698059
0.69689966
0.6968179
0.69675533
0.69673917
0.69671697
0.69714005
0.69705048
0.69698364
0.69690762
0.69682999
0.69676899
0.69674723
0.69672162
0.69712896
0.69704647
0.69698522
0.69691481
0.69684163
0.6967817
0.69675476
0.6967266
0.69711723
0.69704356
0.69698777
0.69692335
0.69685481
0.69679572
0.69676435
0.69673082
0.69454208
0.69375289
0.69336216
0.69318274
0.69303559
0.69712843
0.69307099
0.69337977
0.69421598
0.69360324
0.69336126
0.69318522
0.69297838
0.69306184
0.69299799
0.69297901
0.69407637
0.69357334
0.69336444
0.69319472
0.6930255
0.6930714
0.69299526
0.69298109
0.69398074
0.69355086
0.69336516
0.69320458
0.69304937
0.69307907
0.69300304
0.69298162
0.69389658
0.69353058
0.69336341
0.69321302
0.69307062
0.69308299
0.69301383
0.69298416
0.69382019
0.69351049
0.69335949
0.69321984
0.6930903
0.69308574
0.69302315
0.69298781
0.69375274
0.69348942
0.69335355
0.69322538
0.69310813
0.6930889
0.69303119
0.69299192
0.69369634
0.69346716
0.69334739
0.69323155
0.69312565
0.6930942
0.69304058
0.69299577
0.69204972
0.68996395
0.68972979
0.68964381
0.69036472
0.69338823
0.6892237
0.68957624
0.69072072
0.6898915
0.68973618
0.68951387
0.68922914
0.68933063
0.68930015
0.68926774
0.69052412
0.68984683
0.68973739
0.68952047
0.68929776
0.68933916
0.68929371
0.68927226
0.69040765
0.6898351
0.68973541
0.68952818
0.68933682
0.68934688
0.68929742
0.68927095
0.69030366
0.68982834
0.68973136
0.68953602
0.6893704
0.68935366
0.68930588
0.68927115
0.69021108
0.68982075
0.68972555
0.68954312
0.68940025
0.68936092
0.68931416
0.68927272
0.69013154
0.68981188
0.68971804
0.6895496
0.68942579
0.68936932
0.68932204
0.68927544
0.69007465
0.68980426
0.68971126
0.68955829
0.68944965
0.68938034
0.68933192
0.68927966
0.69670277
0.68625323
0.68610326
0.68623855
0.70664456
0.68770086
0.68548353
0.68558628
0.68765441
0.6862653
0.68612058
0.68586135
0.68607007
0.68560154
0.68561178
0.68558196
0.6873085
0.68621543
0.68612301
0.68587449
0.6860855
0.68556735
0.68559448
0.68558084
0.68705664
0.68619709
0.68612383
0.68588975
0.68608852
0.68559845
0.68560241
0.68557581
0.68689718
0.68618261
0.68612329
0.68590202
0.68607456
0.68562934
0.68561463
0.68557243
0.68676407
0.68616925
0.68612055
0.68591198
0.6860555
0.68565761
0.68562774
0.68557274
0.68664728
0.68615685
0.68611494
0.68592094
0.68603549
0.68568382
0.68564082
0.68557568
0.68655311
0.68614814
0.68610823
0.68593265
0.68601558
0.6857105
0.68565509
0.6855826
0.69388257
0.68234955
0.68230377
0.68247108
0.70801994
0.68400529
0.68174884
0.68186241
0.68361327
0.68201572
0.68231849
0.68215954
0.68249048
0.68185686
0.68189515
0.68187699
0.68385491
0.68210365
0.68235949
0.68217154
0.68250624
0.6818362
0.68186459
0.68188333
0.68368085
0.68216476
0.68239563
0.68219195
0.68250888
0.68186417
0.68187258
0.68188634
0.68338068
0.68219108
0.68242146
0.68220841
0.68249375
0.6819046
0.68188766
0.6818854
0.68318657
0.68221985
0.68243942
0.68222359
0.68247356
0.68194384
0.68190579
0.68188198
0.68302456
0.68224904
0.68245148
0.68223953
0.68245353
0.68198165
0.68192384
0.68188151
0.68289292
0.68228412
0.68246115
0.68226146
0.68243354
0.68202223
0.68194548
0.68188808
0.68886261
0.67971813
0.67877959
0.6786074
0.70218759
0.68190215
0.68062864
0.68598737
0.69688553
0.67875189
0.67866533
0.67851173
0.6787355
0.677987
0.67786787
0.67826322
0.68059609
0.67807498
0.67863857
0.67851555
0.67882135
0.67801041
0.677944
0.67823566
0.67998653
0.67825609
0.67869362
0.67854159
0.67885344
0.67806341
0.6779839
0.67821922
0.67951161
0.67835267
0.67874554
0.67856444
0.67886219
0.67812753
0.67801638
0.67821883
0.67936964
0.67841456
0.67878691
0.67858568
0.67886225
0.67819085
0.67805142
0.67821797
0.67926128
0.67847014
0.67881961
0.67860813
0.67885804
0.67825193
0.67808896
0.67821187
0.67916458
0.67853583
0.67884996
0.67863862
0.67885061
0.67831731
0.67813353
0.6782039
0.6838708
0.67649379
0.67545428
0.67493092
0.68739635
0.67802734
0.68001846
0.69918346
0.69088725
0.67566708
0.67536868
0.67496152
0.6766316
0.67391934
0.67373268
0.67584963
0.67754157
0.67502877
0.67534886
0.67497732
0.67610531
0.67401128
0.67387726
0.67600273
0.67624475
0.67511192
0.6753854
0.67501145
0.67605684
0.67418661
0.6739891
0.67568371
0.67599156
0.67518261
0.67542813
0.67504517
0.67597677
0.67433711
0.67405227
0.67546598
0.67589648
0.67521916
0.67545878
0.67507921
0.67589149
0.67446906
0.67411333
0.67528422
0.67583257
0.67525424
0.67548131
0.67511469
0.67580744
0.67458605
0.6741787
0.67511457
0.67577598
0.67530276
0.67550171
0.67515783
0.67572399
0.67470137
0.67425019
0.67495017
0.67389521
0.67246153
0.67232444
0.67138525
0.67565178
0.67280832
0.67264169
0.6688183
0.67380075
0.67221815
0.67231872
0.67144478
0.67455407
0.67005391
0.67125072
0.66896045
0.67325254
0.67215373
0.6723336
0.67147332
0.67308868
0.67044099
0.67014738
0.67206921
0.67288462
0.67222667
0.67235303
0.67151944
0.6729439
0.67063565
0.67044155
0.67222094
0.67287375
0.67228549
0.67236577
0.67156979
0.67283824
0.67079934
0.67048856
0.67186831
0.6728285
0.67232141
0.67237074
0.67162163
0.67272889
0.67093457
0.67053835
0.67159115
0.67278477
0.67234773
0.67236884
0.6716751
0.67261841
0.67105363
0.67059908
0.67135361
0.67273026
0.6723748
0.67235968
0.67173485
0.67250477
0.67117276
0.67063929
0.67114666
0.67037377
0.66916263
0.66888329
0.66760139
0.67220097
0.66624927
0.67406048
0.6692972
0.67031205
0.66910331
0.66876838
0.66733007
0.69212743
0.66621519
0.6687105
0.67139729
0.66927206
0.66901317
0.66875772
0.66770277
0.66975233
0.66684733
0.66694436
0.66837607
0.6690918
0.6689644
0.66879416
0.66776046
0.66917407
0.66695657
0.66646851
0.66752409
0.66921165
0.66893469
0.66883249
0.66784019
0.66913841
0.66708614
0.66660048
0.6670932
0.66925642
0.66891461
0.66886596
0.66793095
0.66909892
0.66719737
0.6666294
0.6668547
0.66927386
0.66890712
0.66889569
0.66802621
0.66905809
0.66730319
0.66668423
0.66665168
0.66927085
0.66892186
0.66892439
0.66813295
0.66900212
0.66742248
0.66674045
0.66650109
0.66828965
0.66580643
0.66594485
0.66401
0.67119621
0.66248236
0.66814466
0.66489574
0.66732309
0.66571655
0.66585778
0.66385746
0.68149203
0.66366506
0.66467169
0.66863256
0.66682719
0.66568299
0.6658492
0.66414593
0.67711621
0.66231028
0.66187816
0.67510829
0.66657597
0.66567296
0.66588013
0.66422678
0.66675064
0.66241624
0.66167566
0.65949006
0.66648723
0.66566116
0.66591108
0.66430891
0.66660187
0.66262288
0.66185814
0.65958588
0.66641253
0.66566405
0.66593671
0.66441298
0.66653188
0.66282103
0.66203163
0.65974441
0.66634302
0.66568239
0.6659569
0.66453057
0.6664512
0.66303873
0.66222226
0.65992835
0.66627643
0.66571514
0.66597152
0.66467109
0.66633637
0.66328533
0.66240863
0.66019321
0.66412016
0.66176233
0.66325221
0.65877253
0.6651752
0.65812858
0.65915164
0.6663583
0.66349783
0.66173438
0.66320747
0.65874234
0.66531214
0.65933103
0.65954827
0.66125893
0.66367608
0.66170599
0.66302253
0.65908405
0.68508139
0.65852022
0.65800011
0.69279934
0.66344121
0.6617428
0.6630223
0.65960855
0.66265157
0.65815886
0.65667788
0.65111035
0.66330416
0.66180667
0.66305549
0.66006995
0.66325044
0.65832228
0.65711773
0.65181787
0.66318027
0.66190513
0.66311045
0.66048702
0.66361799
0.65860707
0.65748954
0.65241414
0.66307922
0.6620292
0.66316485
0.6608342
0.66388776
0.65894895
0.65780851
0.65304794
0.66300874
0.66217634
0.66321109
0.66112183
0.66402269
0.65932743
0.65812841
0.65378877
0.66066412
0.65744573
0.65900767
0.65402029
0.67198111
0.65166743
0.6529937
0.64459961
0.66003253
0.65736951
0.65891807
0.65355156
0.66045955
0.65159666
0.65290929
0.64357265
0.66006973
0.65735853
0.65893661
0.6546437
0.65897481
0.65246978
0.651364
0.67230108
0.65985451
0.6574162
0.65901441
0.65569812
0.66194142
0.65118106
0.65073574
0.64815081
0.65965245
0.6575491
0.6592246
0.65659465
0.66360372
0.65222902
0.65116966
0.64814254
0.65948202
0.65775626
0.65954458
0.65706
0.66478895
0.65323087
0.65165873
0.64837958
0.65935663
0.65803063
0.65988364
0.65733527
0.66567077
0.65428995
0.6522306
0.64870794
0.65930296
0.65838463
0.66018016
0.65783322
0.66598548
0.65534376
0.65283894
0.64920454
0.66075752
0.65232412
0.65384316
0.72158977
0.68641263
0.6428565
0.6452874
0.62951923
0.65934389
0.65194963
0.65489657
0.72852885
0.67875416
0.64435945
0.64545363
0.62727396
0.65769649
0.6521975
0.65723737
0.70571924
0.67944955
0.64575957
0.64548502
0.64996428
0.65725164
0.65254299
0.65890204
0.67720538
0.68438412
0.64720035
0.64565542
0.64780783
0.6568682
0.65323022
0.6575496
0.67443612
0.67376765
0.64952656
0.64625298
0.64149548
0.65657305
0.65388509
0.65782425
0.67258342
0.67506797
0.65225205
0.6472441
0.64168424
0.65637145
0.65450567
0.65790492
0.66929154
0.67820058
0.6549459
0.64835453
0.64208817
0.65631284
0.65524317
0.65829327
0.66296531
0.67896841
0.65684848
0.64936772
0.64282203
0.65733432
0.64382971
0.64850813
0.75664655
0.68628194
0.62038105
0.62279229
0.60937426
0.65626259
0.64312333
0.65276257
0.7579748
0.7073504
0.62081663
0.62484648
0.60477226
0.65444128
0.64288055
0.66106783
0.76114758
0.74310579
0.63451976
0.6248556
0.62976179
0.65366277
0.64315503
0.6516593
0.76350571
0.66132517
0.63771605
0.62514666
0.62806181
0.65314202
0.64399476
0.64994963
0.76416182
0.6605844
0.63729377
0.62817887
0.62715846
0.65263248
0.6452178
0.65515022
0.76409486
0.67775631
0.62713374
0.62877061
0.62785477
0.65222529
0.64653105
0.66075705
0.76704758
0.6832257
0.64169531
0.63168458
0.62841854
0.65212838
0.648403
0.6649249
0.76704719
0.67982114
0.64253075
0.6340516
0.62950699
0.65502884
0.64747858
0.68671102
0.64548881
0.63406449
0.62728577
0.60836148
0.60083158
0.65364684
0.64059865
0.76495788
0.64565379
0.62628461
0.59185845
0.60161789
0.59442467
0.65301436
0.64723451
0.6522929
0.64771706
0.62976553
0.60456064
0.6101018
0.61275583
0.6528985
0.65079047
0.67699627
0.65038637
0.62863521
0.60758176
0.60312174
0.61013003
0.65144344
0.65089052
0.66857951
0.65144899
0.62766503
0.61131023
0.60767563
0.60670741
0.64979049
0.65593485
0.64236856
0.65197512
0.62498495
0.6348343
0.60800607
0.60886383
0.64824303
0.64683584
0.65042224
0.64970022
0.61966618
0.60976278
0.63176445
0.61022658
0.6484801
0.64662784
0.65081773
0.64442101
0.60675147
0.61115418
0.6173033
0.60609168
0.66689038
0.66582492
0.61135527
0.58336709
0.63247988
0.50964308
0.53989578
0.58973857
0.66612414
0.71672626
0.60374812
0.56277385
0.55427679
0.54042398
0.54159865
0.58041518
0.68422761
0.61653218
0.60410783
0.57626623
0.55611009
0.52786805
0.53985534
0.57952276
0.67035964
0.63874501
0.70972187
0.60634026
0.59426477
0.5352145
0.53370186
0.58120933
0.69095176
0.64612129
0.67749455
0.61897405
0.58464798
0.5896725
0.59982276
0.5672396
0.6530392
0.64311637
0.66311755
0.63800878
0.57098166
0.59050765
0.57168833
0.56984381
0.65034068
0.63896957
0.65974919
0.64514967
0.55924503
0.56778394
0.54717404
0.57031951
0.64893585
0.64497268
0.62864802
0.6326647
0.5465114
0.56551657
0.55194999
0.57032734
0.69485299
0.71555186
0.57041214
0.92597939
4.3350418
0.5204566
0.51296904
0.56440345
0.69518167
0.65583053
0.58571076
0.95318372
4.9166312
0.45611504
0.47760784
0.55975668
0.68306216
0.65985182
0.59656311
0.63553983
3.10572
0.48642337
0.48532087
0.55412082
0.68237596
0.66467835
0.56651251
0.68854107
1.9569253
0.49637725
0.49472188
0.5609488
0.67870812
0.66823929
0.56650475
0.68178085
2.141508
0.50412397
0.4924419
0.54525564
0.66870245
0.67421967
0.57877101
0.69095271
2.0348977
0.53705449
0.50288988
0.54306979
0.66757946
0.68135171
0.60223306
0.70060572
1.5176233
0.56375712
0.52030555
0.5422979
0.66556966
0.68016573
0.60973023
0.70716908
0.63764753
0.54774143
0.53176631
0.54350173
0.76564019
0.62277819
0.93091392
16.792429
21.604934
-1.0876595
0.59772051
0.54144078
0.75320703
0.50607472
2.1106746
16.412915
22.287245
-0.96109486
0.5182166
0.5399386
0.74385239
0.51516356
0.83207072
11.011415
21.248939
-0.44286181
0.46721334
0.55214694
0.73929465
0.49490248
0.75193296
3.2597349
19.648643
-0.028931253
0.52324868
0.52754777
0.7276402
0.5003146
1.2994634
0.19991223
18.32554
0.67988235
0.41738572
0.518317
0.72057445
0.50800193
1.0173583
0.18053789
14.629679
0.018134127
0.33911039
0.50263289
0.71127673
0.52477144
0.96582682
2.8264126
18.969523
0.72404012
0.35549881
0.49243112
0.70345973
0.59037555
1.0997855
1.909032
1.904881
1.0622665
0.41808864
0.49274861
0.97916519
-0.58532122
16.705207
67.094465
39.193162
-2.5739403
0.2478979
0.5265159
0.96477452
-1.131086
10.419035
63.935215
41.619169
-2.3765237
0.097769128
0.50280358
0.8179031
-0.69708741
14.0086
62.730056
45.240059
-1.5375426
-0.058137647
0.46315668
0.51551919
-0.19894706
44.86131
64.515035
47.804315
-0.74502497
-0.20283481
0.40583166
0.46752099
1.4017633
58.738891
66.424435
52.86349
0.13818153
-0.31785305
0.33665747
0.71670557
1.5735225
-6.7689036
64.370927
51.567429
1.3363357
-0.27095605
0.27597251
0.98370372
1.1387859
3.4085541
62.003779
53.511513
3.2839661
-0.2883933
0.24572664
1.1920966
1.1796507
-3.2864245
60.63059
45.361974
5.0751184
0.075110089
0.29209719
0.62994695
-0.22631513
21.724189
56.559823
39.377842
-2.0293863
0.33218566
0.51198196
0.56818278
-0.30224469
25.564096
56.123321
41.366165
-1.6246831
0.19771817
0.47711376
0.44997243
0.66745191
20.436788
55.748613
41.038172
-0.77955391
0.064225193
0.42313577
0.3736733
1.6705122
26.149708
55.866864
40.315538
-0.2957248
-0.046962363
0.34938616
0.43377159
2.7929005
25.447123
49.932829
41.957551
0.055634894
-0.15996709
0.2518204
0.63488137
3.4447869
7.9544278
58.008448
39.645807
0.51663252
-0.25631964
0.13543521
0.93778662
3.8145168
-1.4052245
37.985796
40.186694
1.1951054
-0.32268283
0.058966869
1.2289602
4.4912438
-3.6684792
25.145139
36.649057
2.1420145
-0.26986026
0.067650523
0.54881681
0.64008338
2.9218294
1.1164055
9.6866826
0.071076507
0.36507054
0.5914787
0.58766794
0.77967159
3.5402058
2.3312969
9.0112883
0.047870808
0.34491632
0.57381304
1.4067816
0.94134907
2.7345397
2.0105601
7.8321835
0.14719736
0.32556877
0.55971333
0.64891965
0.43747935
2.7614672
3.070217
6.9848423
0.19879405
0.3003963
0.54330993
0.56151254
0.68584044
3.6010686
2.297206
5.4858854
0.17089349
0.28393457
0.51192344
0.51766025
0.61062462
4.6621037
3.0536289
4.446955
0.085793004
0.2479174
0.46646363
0.48475365
0.62544455
18.611187
2.96662
3.4351292
-0.0093027744
0.18440152
0.4266732
0.63770721
1.6529697
7.5812873
2.8043386
2.8482315
-0.074348462
0.10920296
0.39883085
0.77812628
0.83448505
0.72923348
0.61157024
1.6406618
0.34232642
0.40108084
0.56878016
0.81325622
0.787672
0.67482828
0.60623242
1.7747144
0.29908688
0.38738282
0.56049048
0.80092863
0.7576777
0.63973464
0.59729971
1.6743214
0.30031001
0.3718932
0.55517883
0.85926242
0.80114485
0.59771327
0.57598382
1.8515244
0.30921212
0.35619786
0.54834356
0.86458873
0.86523566
0.53810716
0.58469998
1.5213582
0.31887408
0.34421695
0.53641257
0.8614891
0.82757349
0.40102677
0.60713998
1.1256233
0.31800136
0.33696228
0.52165897
0.85588236
0.76102607
0.2720002
0.60199292
0.58842576
0.31637362
0.33278638
0.50581311
0.82078526
0.86121169
0.32599489
0.6153052
0.50152184
0.32459643
0.32856997
0.487377
0.93209367
0.57947619
0.59279981
0.66256007
0.53127758
0.48520553
0.50758877
0.55505886
1.0001426
0.55362931
0.61072431
0.65907214
0.50832585
0.43955948
0.50375309
0.5481228
0.90551351
0.53819293
0.63778122
0.65452564
0.50167415
0.44020635
0.49767125
0.55042013
0.6652058
0.53400975
0.63037653
0.64871666
0.49917593
0.42853935
0.49311928
0.53918662
0.6081816
0.53093974
0.61474417
0.64709001
0.49673238
0.42643853
0.48416468
0.539961
0.58194594
0.52249423
0.57509872
0.62306206
0.50238261
0.43140375
0.47723562
0.53629074
0.49838069
0.50968542
0.51361478
0.59436788
0.50540084
0.49833001
0.47261567
0.53077205
0.44281819
0.4955728
0.47970788
0.6002399
0.50457232
0.44509472
0.47085642
0.52349482
0.59406594
0.56928397
0.62250458
0.60287591
0.53358532
0.53456302
0.51598877
0.54236158
0.58871227
0.57111356
0.62787846
0.53580561
0.53308754
0.49593738
0.51516736
0.53956651
0.60041477
0.58694037
0.63297483
0.60437418
0.53655841
0.50030487
0.51295707
0.54046727
0.60494285
0.58996857
0.63428451
0.57902246
0.53672759
0.50253897
0.50934666
0.54139173
0.61138703
0.58570048
0.60997276
0.58510606
0.53769867
0.50614231
0.50818673
0.53057965
0.61369778
0.59181326
0.55864244
0.61867888
0.54131668
0.50572904
0.50218223
0.53233088
0.58453287
0.58071946
0.54555756
0.57466316
0.54307167
0.51138787
0.50144236
0.52992306
0.56488861
0.57694064
0.53307961
0.55578965
0.53896243
0.52453139
0.50076209
0.52406789
0.65329583
0.51582263
0.78364424
0.65022411
0.50977371
0.54035976
0.53677933
0.52930036
0.65131393
0.52615153
0.77444898
0.56628001
0.50387289
0.498355
0.5197665
0.52965597
0.65393906
0.52446404
0.77780385
0.97477455
0.50403338
0.50288202
0.51877125
0.52906772
0.66031937
0.56071967
0.77384964
0.56764584
0.51609277
0.50520768
0.51342018
0.5296289
0.66880995
0.55354351
0.77498746
0.77300252
0.52335749
0.51090883
0.51132547
0.52992465
0.70549287
0.62435086
0.78839391
0.71822797
0.52176644
0.51229761
0.51138766
0.52899067
0.69268193
0.48658455
0.79444417
0.56618087
0.52119447
0.51250933
0.51426127
0.52657478
0.6134674
0.50429529
0.7927533
0.50874587
0.52168524
0.51324679
0.50724647
0.52473192
0.51340443
0.67408636
0.78868667
0.64923788
0.51573184
0.54791715
0.52700048
0.52688495
0.5124344
0.73466741
0.77752775
0.64544193
0.49786329
0.5135479
0.52155109
0.52562494
0.5122782
0.79416405
0.77403861
0.74211015
0.50518785
0.51756169
0.52193934
0.52619467
0.54360315
0.85726971
0.76615713
0.77101742
0.51409415
0.52033551
0.51956324
0.52689361
0.56816877
0.67649248
0.76637493
0.6881073
0.51099138
0.51453497
0.51654547
0.53210495
0.57612947
0.68679062
0.76647882
0.8898614
0.50239826
0.50716466
0.51636695
0.53192168
0.58194951
0.68864558
0.76209525
0.59763808
0.50776723
0.5034719
0.51489552
0.52425014
0.58737075
0.66029536
0.75751934
0.54453943
0.50898328
0.50321672
0.50658553
0.52308313
0.52401444
0.69783709
0.81188832
0.64149538
0.50485278
0.50334071
0.53827676
0.52098713
0.50688631
0.69560644
0.80843228
0.63640688
0.48785696
0.50781927
0.51886543
0.51842779
0.51216386
0.71795892
0.80581667
0.63883093
0.49609503
0.50887762
0.51923145
0.52088672
0.53032622
0.73002879
0.80163358
0.60869894
0.50064535
0.5081896
0.51713771
0.52226232
0.56314238
0.80466312
0.80232317
0.60553233
0.49919224
0.50600587
0.51468488
0.52436825
0.56772666
0.75190291
0.80987483
0.61845154
0.49623826
0.50313013
0.51229219
0.53107298
0.56364593
0.69391431
0.82225921
0.52446901
0.49629148
0.5003244
0.51135069
0.51837199
0.5592472
0.68075602
0.81483155
0.50562456
0.49648239
0.49754636
0.50924826
0.51766829
0.5239522
0.56251629
0.77257941
0.52624821
0.49374219
0.54705598
0.53501599
0.51396021
0.51384771
0.56629093
0.77090515
0.52167334
0.49247979
0.57081017
0.51236433
0.50768092
0.51242283
0.56718327
0.77167328
0.51019432
0.49244494
0.49988242
0.51285883
0.50801839
0.51914547
0.59411767
0.76919481
0.50733313
0.49264177
0.49977508
0.5109211
0.51013607
0.54662971
0.59178135
0.76734944
0.48744163
0.49233195
0.49880553
0.50861209
0.50804561
0.52764488
0.58795141
0.77110963
0.47981873
0.49155335
0.49765242
0.50654226
0.51765567
0.52676286
0.59918633
0.69660714
0.47974573
0.49087022
0.49587476
0.50747092
0.51099352
0.52836109
0.61750981
0.66488385
0.48362449
0.49050228
0.4943041
0.50207036
0.51031041
0.51347335
0.565858
0.67959141
0.48471666
0.50071077
0.5320937
0.50921237
0.50138712
0.51543483
0.57565426
0.59105013
0.47983692
0.49630556
0.57840915
0.50357091
0.49747079
0.52127427
0.60910815
0.63532043
0.47716915
0.4914273
0.49740092
0.50446212
0.49798983
0.52526817
0.56228178
0.861654
0.47468614
0.48962308
0.49629068
0.50297905
0.49951522
0.5287706
0.55550615
0.71643065
0.47662923
0.4904643
0.49528336
0.50135457
0.49977372
0.56633287
0.80599771
0.74532043
0.47536008
0.48922371
0.49400096
0.49992323
0.50017005
0.53427711
0.48056425
0.9811699
0.45276434
0.48434846
0.49242104
0.49835025
0.50107614
0.53354634
0.50258288
0.54793217
0.45500901
0.48118916
0.49020547
0.49612658
0.50058516
0.46397613
0.63619265
0.49971708
0.46928158
0.49312313
0.49786884
0.49678953
0.47176555
0.47326088
0.63659035
0.48784718