/*--------------------------------*- C++ -*----------------------------------*\
  =========                 |
  \\      /  F ield         | OpenFOAM: The Open Source CFD Toolbox
   \\    /   O peration     | Website:  https://openfoam.org
    \\  /    A nd           | Version:  13
     \\/     M anipulation  |
\*---------------------------------------------------------------------------*/
FoamFile
{
    format      ascii;
    class       volScalarField;
    location    "0.1";
    object      p_rgh;
}
// * * * * * * * * * * * * * * * * * * * * * * * * * * * * * * * * * * * * * //

dimensions      [1 -1 -2 0 0 0 0];

internalField   nonuniform List<scalar> 
51200
(
725.20096
1118.8825
1202.1633
1200.3053
1199.8348
1201.6508
1119.3684
726.95377
446.93245
945.28574
1126.4871
1147.2159
1146.701
1125.8269
945.2779
446.65759
240.61816
762.14926
1029.5007
1081.823
1081.2774
1028.6397
761.46437
239.20711
107.37689
578.35721
911.19296
1003.1932
1002.6317
910.08881
576.97681
105.72233
42.146417
414.44512
775.26572
905.83737
905.27875
773.95715
412.63065
40.996793
19.036091
282.34742
631.29225
790.546
790.01103
629.88467
280.50663
18.745783
26.032207
192.61572
484.04659
648.55101
648.08608
482.75153
191.19983
26.536996
34.302849
115.60297
329.68547
482.65053
482.29342
328.68808
114.90372
35.296917
386.46283
829.41779
941.81941
962.51796
962.03849
941.39773
830.17421
388.74527
136.54012
700.80451
915.78089
954.70218
954.19325
915.23561
701.01601
136.66236
-35.803239
557.25502
862.37445
930.44473
929.91508
861.63179
556.71916
-36.965972
-137.06074
402.24605
776.1248
883.27269
882.73254
775.11709
400.92689
-138.56502
-171.09357
262.31424
664.841
811.21565
810.67951
663.59915
260.46628
-172.16031
-164.66476
153.57913
542.01096
718.62509
718.10643
540.63229
151.62845
-164.9128
-128.93247
88.435088
414.94838
597.36508
596.90069
413.64409
86.877151
-128.43878
-95.068292
31.187623
274.44223
444.51924
444.14571
273.40319
30.373205
-94.138918
413.2471
899.32278
1025.3876
1053.0756
1052.6274
1025.2427
900.55888
416.11449
137.31642
757.08926
995.17202
1041.8322
1041.3722
994.9328
757.74282
137.97388
-52.528788
598.68658
935.55267
1013.4005
1012.9313
935.12779
598.52751
-53.248964
-164.70587
427.64714
840.20036
960.38153
959.90729
839.50201
426.60104
-165.91745
-202.82912
273.60828
716.93113
879.92303
879.46845
715.96704
271.91573
-203.76329
-196.77881
153.49904
581.0023
777.98749
777.54108
579.86055
151.60126
-196.98031
-158.20531
81.05068
440.13565
644.85113
644.44672
439.02282
79.467438
-157.67379
-122.54429
15.699163
283.64937
474.18501
473.84326
282.75791
14.788508
-121.54985
404.65008
940.63159
1088.7662
1123.2603
1122.9222
1089.0974
942.68805
408.39494
102.60715
784.51415
1054.3175
1109.0685
1108.7397
1054.6025
785.99125
104.13736
-105.82737
610.29655
987.46331
1076.1512
1075.8283
987.58534
610.91605
-105.80815
-228.67537
423.14256
882.54955
1017.5653
1017.2447
882.38835
422.76703
-229.3816
-270.48864
255.63468
747.88252
930.34484
930.02699
747.41098
254.45817
-271.1124
-262.86651
125.64892
599.96596
819.61976
819.30274
599.24243
124.10205
-262.93533
-218.95485
48.135513
446.91217
674.79579
674.49392
446.11852
46.753939
-218.38376
-176.70752
-20.754026
277.15982
491.20757
490.93254
276.52181
-21.602697
-175.71491
426.09998
1008.2063
1174.4675
1214.1012
1213.9084
1175.3734
1011.3813
430.98754
98.893704
838.53899
1136.3151
1197.8624
1197.7042
1137.2528
841.18128
101.61541
-127.1639
649.22346
1063.0568
1161.4432
1161.3122
1063.855
650.99063
-126.08277
-260.69794
445.97032
948.63458
1097.4124
1097.2989
949.16172
446.61118
-260.6207
-306.63314
264.16977
802.03788
1002.5295
1002.4226
802.21958
263.8172
-306.77294
-298.84195
122.96763
641.20938
882.20907
882.09258
641.06236
122.02605
-298.66706
-251.46006
38.494364
474.99121
724.76065
724.63138
474.63787
37.501542
-250.77816
-206.12264
-37.105911
288.27691
524.48085
524.34027
287.85843
-37.773876
-205.09525
441.91646
1066.9705
1250.4271
1295.1982
1295.1932
1252.098
1071.4064
448.10316
91.37294
884.77021
1209.2315
1277.3389
1277.3986
1211.0145
888.75649
95.467553
-151.17263
681.41505
1130.2385
1237.8187
1237.9306
1131.9477
684.53663
-148.86714
-294.73782
463.32001
1007.1318
1168.8662
1169.0118
1008.5811
465.23155
-293.76584
-344.50307
268.39858
849.57815
1067.0296
1067.1874
850.64959
269.12678
-344.11554
-336.43771
117.00781
676.69375
938.05862
938.19904
677.36546
116.9036
-336.04791
-285.32746
26.496197
498.25956
769.31728
769.41549
498.57397
26.079398
-284.51482
-236.25011
-54.365512
298.45047
553.98216
554.02253
298.48015
-54.72193
-235.18406
458.35419
1120.7309
1319.0071
1368.4246
1368.5957
1321.4792
1126.6099
465.60928
88.495334
927.68917
1275.0485
1349.2771
1349.5433
1277.7699
932.84937
93.13569
-169.56419
711.46568
1191.2155
1307.1682
1307.5159
1193.8053
716.32451
-166.13121
-321.85413
480.35469
1060.376
1233.9239
1234.3251
1062.8438
483.83317
-320.06118
-375.01366
273.95169
893.0993
1125.9028
1126.325
895.15602
275.96525
-374.13671
-366.77127
113.61869
709.52169
989.1899
989.59096
711.08622
114.48002
-366.24216
-312.49559
17.756046
520.49057
810.30382
810.63828
521.57889
18.003613
-311.57011
-260.49412
-67.986579
308.33787
581.33468
581.56826
308.94672
-67.953468
-259.41081
468.75793
1161.8691
1373.7987
1427.5677
1427.8611
1376.6514
1168.5886
476.74952
81.578294
958.8722
1327.4293
1407.3217
1407.736
1330.606
965.49176
87.671626
-186.18962
733.00969
1239.1876
1363.0566
1363.5741
1242.4754
738.77843
-182.23341
-345.27241
491.32072
1102.0845
1286.2303
1286.8262
1105.1632
495.66043
-343.30907
-401.07419
275.70656
926.75585
1173.0626
1173.6998
929.50256
278.61061
-400.343
-392.80671
108.28466
734.50292
1029.9382
1030.5627
736.72039
109.83515
-392.57127
-336.37101
8.2893148
536.60156
842.69427
843.24335
538.25586
8.9704797
-335.67814
-282.00719
-81.211958
314.41655
602.48757
602.90788
315.47088
-80.960011
-281.16252
477.92798
1191.2541
1415.1284
1471.645
1472.0312
1418.4173
1198.1623
484.19368
77.934711
980.43181
1363.9863
1449.7522
1450.2622
1367.5109
987.66887
82.59708
-201.08635
746.80401
1272.6573
1403.8263
1404.44
1276.2853
752.99199
-196.08716
-365.27716
497.16109
1130.8987
1324.2806
1324.9745
1134.3683
502.09377
-362.26421
-423.20805
274.73137
949.76419
1207.1906
1207.9305
952.81159
277.90368
-421.42005
-414.73327
101.95463
751.09306
1059.1771
1059.9102
753.58197
103.84283
-413.77358
-356.77207
-0.92173027
546.33789
865.5789
866.23331
548.313
-0.11193555
-355.59004
-300.67942
-93.446397
316.59432
616.74727
617.26387
317.91132
-92.99696
-299.42413
480.37117
1206.9873
1452.3188
1497.4205
1497.9949
1455.9072
1214.402
490.28677
71.959047
993.7787
1381.9465
1473.6106
1474.2864
1385.8414
1000.6982
81.860372
-214.02574
754.19023
1289.3633
1426.5821
1427.3466
1293.3524
760.5581
-209.03211
-381.9252
498.88375
1145.5817
1345.4326
1346.2583
1149.2614
503.37351
-378.89436
-441.25684
271.6231
961.1768
1225.9348
1226.7763
964.40659
274.65519
-439.82391
-433.01002
95.594229
758.41812
1074.8501
1075.6635
761.09799
96.973903
-432.1961
-373.97264
-10.420889
549.14517
877.23083
877.94601
551.26431
-9.1775303
-372.97457
-316.65699
-104.98797
314.42486
622.75657
623.32791
315.86531
-104.18688
-315.45944
473.36457
1205.2999
1471.4216
1501.8119
1502.304
1474.2242
1213.2366
486.34077
60.266007
991.03868
1384.74
1478.1279
1478.7762
1388.0777
998.86421
71.719077
-224.60585
751.46523
1290.9615
1430.5549
1431.3335
1294.4413
757.72211
-217.95727
-394.48947
493.53593
1147.1815
1348.9131
1349.7337
1150.3832
498.58244
-389.95426
-454.64947
264.79333
962.05578
1228.5802
1229.4199
964.88298
267.37383
-452.40816
-446.85733
86.400316
757.51343
1076.3157
1077.1363
759.91102
88.137672
-445.19831
-387.49074
-20.231096
546.14344
877.09818
877.82956
548.09005
-18.976757
-385.84725
-329.63055
-115.78368
308.77811
620.14328
620.74225
310.1534
-114.97496
-327.85503
460.31441
1188.5735
1450.2901
1488.0897
1488.7198
1453.0031
1196.8136
473.6282
48.260019
975.52114
1372.3585
1464.9387
1465.7664
1375.8668
983.8185
59.269234
-234.46945
737.30652
1277.8457
1417.3841
1418.3064
1281.5952
743.69446
-224.01686
-404.8464
481.56428
1134.4655
1336.0425
1337.0051
1138.0606
485.42919
-399.12834
-465.15384
252.33913
950.30169
1216.1589
1217.1377
953.38763
255.02483
-462.15921
-457.52744
76.036934
746.61961
1064.3922
1065.3273
749.32496
76.566298
-455.54938
-398.32004
-31.60212
535.88977
865.76541
866.58997
538.12663
-30.050523
-396.56016
-340.56832
-126.849
298.7715
609.3957
610.08751
300.42232
-125.67276
-338.71001
442.12101
1156.3512
1410.3646
1455.1781
1456.4628
1414.5551
1165.5074
454.86872
36.124705
947.27278
1340.4865
1431.038
1432.4842
1344.5409
956.46248
47.558741
-240.59656
714.04221
1246.0709
1384.0952
1385.6248
1250.8126
720.08935
-228.0315
-411.53952
462.97252
1104.9164
1303.9983
1305.5799
1109.1703
465.78842
-403.03953
-471.05143
239.04662
923.78097
1186.2065
1187.6859
927.33982
238.688
-465.61429
-463.53442
62.424288
723.78336
1036.9711
1038.2951
726.96344
63.209566
-460.71955
-405.40572
-43.553496
516.67024
841.51174
842.63963
519.31367
-41.813599
-402.51664
-348.50215
-137.44584
283.09049
589.16841
590.10759
285.0834
-136.03267
-345.96917
414.37167
1111.3836
1358.3065
1406.5649
1407.5037
1361.2491
1118.6281
426.06057
20.575808
908.31732
1291.4692
1379.4034
1380.3709
1294.2997
915.8789
31.929237
-249.67114
680.90072
1199.9492
1333.6643
1334.7304
1203.1565
686.59668
-239.55514
-412.7288
440.08257
1061.8166
1255.6935
1256.8268
1064.9512
438.9784
-404.06714
-470.66887
217.90392
886.32168
1141.0783
1142.1852
888.28127
218.81037
-464.99382
-464.06885
57.011718
691.81742
995.86686
996.90566
693.91572
48.075466
-460.12138
-407.72974
-56.865883
490.39719
805.70049
806.65411
492.39504
-54.203532
-403.48199
-352.94388
-148.26363
263.30893
560.43207
561.28359
264.71066
-145.83906
-348.99122
383.24533
1045.5264
1291.6144
1336.6309
1337.7666
1295.1988
1055.0045
393.27537
4.6446735
851.47224
1222.3069
1308.0927
1309.1789
1225.6346
861.16575
14.104969
-253.96562
633.39445
1134.7011
1264.2458
1265.3878
1138.0473
641.87867
-243.97995
-409.93108
403.23782
1002.5185
1189.5554
1190.6823
1005.8531
404.91507
-402.94563
-466.11769
191.71837
835.8466
1079.6729
1080.7632
836.96723
198.05933
-461.93127
-459.60904
47.990859
649.60856
940.39499
941.38476
651.06458
31.02857
-455.5622
-406.64414
-65.050997
456.42306
757.99102
758.88744
457.77494
-60.367536
-403.14481
-354.18605
-154.62232
238.74473
522.96274
523.74417
239.52531
-153.36306
-351.2593
346.75891
971.75212
1214.3137
1248.3071
1248.0312
1213.997
987.89078
356.50155
-11.690978
789.02186
1139.5689
1219.6107
1219.1605
1139.9602
807.04899
-2.7091934
-255.59363
583.84216
1055.447
1178.0515
1177.6582
1055.1229
599.29444
-241.04339
-403.36512
366.82092
930.49585
1107.4272
1107.0705
930.92881
371.76172
-396.85015
-450.6205
164.31399
773.67474
1003.5911
1003.4114
772.88163
170.96938
-451.92074
-449.67869
23.626576
598.02755
871.87394
871.82978
597.50792
14.278318
-447.51749
-401.62188
-74.531523
415.37825
699.33789
699.44522
415.4255
-80.157876
-398.42077
-352.42662
-162.85763
209.29558
477.3006
477.5275
209.56676
-164.7843
-349.98215
303.28129
893.34003
1114.9371
1150.1212
1152.8117
1118.6832
901.21739
311.47271
-31.224895
723.81389
1045.6072
1118.907
1121.9437
1049.9928
732.92502
-23.938741
-256.92829
535.81416
964.78476
1080.1412
1083.1891
970.70918
538.09963
-251.54196
-394.30348
331.35515
848.26478
1014.1416
1017.136
853.22159
325.89972
-386.02639
-433.57751
138.90163
702.8293
917.35259
920.04513
704.28626
137.48328
-440.61468
-438.56246
-1.4020597
538.91874
794.43221
796.77715
540.92585
-2.3541831
-431.58703
-392.99115
-93.192944
368.95862
633.36543
635.42123
370.60146
-92.957315
-390.07154
-347.74232
-173.07382
177.02069
426.44278
428.19411
178.10211
-166.9352
-345.6608
264.19823
806.99779
1006.8521
1047.8612
1051.3178
1008.8616
802.47984
277.26893
-47.200894
654.25815
942.15276
1008.2816
1012.6706
947.12258
646.78526
-22.767293
-247.4263
481.06226
866.52173
972.65246
977.09325
873.51372
471.07925
-252.48038
-383.98933
277.14032
758.56115
911.84915
916.12655
764.06745
272.32515
-374.08504
-430.05782
106.2904
623.49066
822.84686
826.58943
626.8619
103.87609
-427.69688
-425.62619
-30.6937
473.64301
709.69705
712.93443
476.88069
-27.35827
-415.72724
-384.01355
-111.79503
318.02624
561.44395
564.17711
320.76271
-107.37722
-377.77724
-342.21117
-182.72156
141.59663
371.26535
373.54589
143.36783
-176.03907
-339.59218
233.90869
711.02373
903.12406
949.89729
951.55999
897.48105
707.62695
246.91777
-57.306143
571.30766
840.90349
897.42677
898.24856
839.15425
563.74758
5.1579294
-228.27375
410.42475
772.30233
865.32627
866.22551
771.40338
400.59493
-237.90629
-370.8279
225.66451
671.8848
809.73323
810.79635
671.65172
224.65521
-355.10979
-412.41056
60.047314
546.61675
728.24065
729.46015
547.02681
73.201739
-412.492
-412.37204
-56.324713
410.37637
624.72998
626.01565
410.83387
-46.316273
-401.38213
-373.49454
-126.03417
268.78139
489.31795
490.60347
269.20501
-119.66916
-366.06312
-334.77096
-190.5518
107.57675
316.13302
317.36677
107.90893
-182.18819
-331.70241
194.67611
599.90939
788.72506
846.93338
855.09057
788.52576
611.3813
205.27986
-73.068386
474.98822
734.25885
781.46427
782.89331
733.65356
478.76937
-12.300779
-224.84268
331.54928
670.95098
752.71844
754.45364
670.42849
331.74213
-230.4735
-355.28356
178.72572
578.83558
702.84304
704.60386
579.61226
175.49791
-336.91749
-398.58603
40.203992
468.30647
629.60001
631.57242
467.43035
47.66608
-394.50595
-392.8003
-46.680539
345.34254
536.49684
538.5022
345.2851
-62.545193
-387.52015
-362.40478
-136.32484
217.00101
414.61873
416.63879
217.78052
-130.36031
-355.01847
-329.21546
-196.19132
72.318924
259.05166
260.92444
72.933717
-184.6366
-323.15737
147.31708
506.75236
678.09256
749.86394
766.17237
678.63151
527.0413
163.7159
-92.955129
398.27076
628.24027
666.95401
672.0166
639.3451
408.98855
-34.495676
-226.56411
274.8294
569.06713
642.03914
647.01441
578.02207
278.00884
-221.07277
-343.72439
128.10011
487.65697
597.52693
602.23521
493.81252
142.97181
-316.20938
-379.9528
18.434762
388.95334
532.86974
537.01767
393.1408
26.620029
-371.73435
-376.70261
-84.787478
279.48036
450.32103
454.00967
284.37501
-78.261619
-373.24709
-348.89289
-149.08027
166.41092
342.00148
345.22681
170.42985
-133.10766
-341.06741
-319.38141
-201.66536
38.077126
203.80394
206.45775
40.361994
-181.46401
-314.41319
127.74345
405.8528
581.87578
668.99978
683.05433
573.89891
436.65325
128.97693
-84.078003
313.20617
527.68786
560.53945
565.56546
540.65263
328.39189
-32.996663
-233.14961
201.2763
477.84658
539.57886
544.895
486.43659
214.05447
-212.2842
-323.20128
109.68535
405.12468
500.14978
504.71896
410.67979
97.12897
-299.5077
-354.71848
-22.156012
313.53815
442.91263
446.82639
320.10985
-19.124742
-329.00062
-355.09014
-113.42479
217.48532
369.76852
373.3761
224.22544
-111.20181
-361.95848
-342.98002
-164.23097
118.73706
274.06105
277.18355
124.49186
-162.372
-337.5439
-316.05355
-207.90322
5.5984342
152.31722
154.78372
10.090253
-206.7214
-309.45808
103.71719
326.16676
490.80691
591.29724
584.88684
476.74318
369.73165
114.84024
-90.205993
245.02336
427.78173
456.46307
455.55675
430.8946
268.78809
-2.0706527
-214.30624
138.3958
385.29465
438.83337
437.80893
385.53366
162.27581
-201.68679
-304.42422
49.347947
322.89625
404.81619
403.38232
318.84672
66.221421
-283.16081
-343.87696
-61.737942
242.83326
355.17211
353.41126
242.54138
-27.854661
-309.87481
-342.58084
-116.49462
159.00439
291.55538
290.33291
159.37905
-126.38873
-343.99628
-329.65785
-169.77034
73.218015
208.32468
207.55717
73.307039
-171.95305
-320.84451
-305.54868
-205.76965
-25.460151
102.51411
102.07488
-25.006298
-210.31948
-297.9784
69.678353
260.83274
404.77894
519.16292
521.02598
391.51744
270.02876
57.519782
-108.35814
194.18472
333.14972
355.24502
356.12138
340.56934
203.03403
-115.19343
-188.1513
105.6994
294.20923
340.43851
341.38786
298.59361
100.02915
-187.0924
-286.2146
8.453684
239.96519
311.96487
312.5791
241.21735
31.906733
-285.79701
-323.85857
-65.941028
172.80153
270.08029
270.14749
177.77796
-57.688524
-291.94857
-320.98436
-140.29929
102.94978
216.18394
216.4072
108.216
-131.95643
-326.88411
-318.34053
-181.40832
29.337296
145.21615
145.60206
33.314347
-175.67036
-307.97944
-298.24181
-215.49497
-54.662717
54.821068
55.244683
-51.98105
-210.53054
-287.52356
48.470232
194.81864
332.20851
458.35514
464.42441
326.6577
216.19318
36.801569
-112.26831
142.95155
262.55835
266.23831
267.35841
271.08691
125.80037
-123.26861
-165.35775
50.919654
227.09061
257.10136
263.04127
231.59033
60.48283
-206.32289
-271.68139
-7.3596884
180.62997
237.04318
238.81018
183.66717
-17.425408
-286.0213
-297.25783
-100.6931
118.75903
201.20364
202.61606
126.74839
-89.625358
-291.2866
-297.38148
-158.31888
57.537224
154.77062
156.40693
66.018921
-148.46695
-306.62972
-312.88625
-192.21937
-5.2566717
93.969763
95.42127
1.1541436
-183.9824
-292.24269
-295.01232
-220.17754
-77.383134
16.532858
17.686862
-72.151099
-213.58254
-277.17307
9.0107043
134.57484
249.22417
376.40611
348.53086
251.99362
150.56649
-2.7472301
-134.77304
104.43145
204.9613
187.5311
188.53057
218.60346
119.23505
-118.67732
-99.92124
21.56014
169.79886
185.49876
191.94971
182.85596
30.221283
-124.53751
-253.477
-38.991236
126.90746
172.25126
177.83665
139.15667
-48.161961
-256.71219
-264.74438
-113.01664
71.853819
141.11673
146.37222
84.109771
-122.71095
-275.0385
-262.82983
-166.20243
21.385926
101.66839
106.54592
29.668157
-169.59106
-281.19543
-297.09432
-195.81749
-33.102014
49.817706
54.055384
-26.302161
-196.92605
-291.77929
-281.56148
-223.37446
-95.142941
-16.39648
-13.288539
-89.533347
-220.01859
-277.54717
-13.572082
95.215334
171.53123
255.59472
191.61092
180.09862
106.39886
-75.545317
-119.79037
66.099257
138.54945
112.88325
134.81698
142.5378
73.119772
-174.3621
-184.3767
-11.662062
107.96886
118.06376
129.71649
130.34776
-8.0555267
-166.43019
-200.66873
-72.588452
69.560848
106.86178
124.41977
87.776434
-71.144006
-250.74328
-278.2937
-127.05714
28.017224
81.393684
97.479365
37.896493
-136.56409
-214.30101
-280.62978
-121.11619
-9.3481863
49.570435
63.608036
-8.7714153
-160.76863
-255.99586
-268.05257
-187.05904
-57.96141
6.697699
18.552445
-55.331881
-191.94898
-242.4539
-259.66457
-213.29622
-110.64711
-48.572429
-39.550062
-108.78262
-214.65333
-258.99956
-42.038987
108.69574
135.51928
96.279931
72.854776
96.938302
145.3902
-34.517838
-121.28751
49.479023
88.486181
78.572414
96.51975
104.15746
30.856791
-97.549
-182.61979
-27.071865
67.220404
67.672079
78.991311
122.75502
-32.657497
-165.00436
-205.91513
-83.942175
32.035082
63.086172
72.086134
39.780021
-82.0676
-180.36055
-216.55107
-114.28783
-1.0356484
41.09008
49.247793
-0.11901574
-133.77549
-253.89757
-267.954
-156.31489
-34.32802
14.67031
21.625122
-39.197666
-146.27747
-267.60162
-258.72436
-194.2647
-75.901942
-21.964249
-15.950716
-78.229108
-193.96142
-251.60019
-250.99011
-214.5635
-121.35704
-69.729316
-64.762234
-124.67542
-202.78287
-253.48338
-115.233
64.787713
82.04502
49.520786
37.739322
66.148634
163.50443
-61.86815
-159.25263
-29.623941
54.726196
47.575512
98.51549
55.67822
42.434041
-112.13444
-217.93306
-4.5348929
50.6539
35.141703
47.151912
87.489491
-30.06746
-169.39222
-198.47052
-102.73899
8.8878506
25.184692
30.622276
-19.314673
-76.90899
-186.48723
-229.00095
-125.12733
-23.735689
10.01367
12.141754
-47.518454
-151.66854
-183.03575
-248.41789
-178.64164
-57.075635
-13.53848
-11.879637
-73.112169
-180.97652
-248.615
-243.62109
-198.06102
-92.597637
-45.245849
-43.807
-105.9634
-188.35241
-244.08308
-238.14968
-214.59185
-131.38375
-86.30275
-85.099652
-142.87527
-221.93547
-239.72964
-95.672604
10.792552
-9.7058304
19.631807
-13.291229
23.673449
160.42075
-140.18701
-94.119425
-81.638777
4.1282203
18.491894
23.888094
17.15946
38.540523
-166.45109
-183.94342
-42.977505
6.5663647
15.47366
30.043131
66.617105
-11.475188
-208.02327
-197.36235
-114.28136
23.129854
-5.759937
1.9148362
-51.374506
-25.24446
-228.54762
-242.60916
-135.83887
-63.840764
-21.284716
-15.352699
-76.432957
-163.08222
-172.85031
-237.04068
-201.08798
-92.384089
-41.988455
-36.643483
-95.170841
-189.63792
-223.77606
-234.65277
-211.97046
-119.14127
-68.336905
-64.383971
-120.2542
-201.80655
-225.32191
-241.3593
-221.83178
-148.7796
-102.69376
-99.709541
-149.82431
-219.52501
-225.08382
-86.632874
-14.139447
-46.268042
-16.351048
-51.855031
-81.643911
76.719717
-177.32601
-159.54202
-94.895559
-52.048072
-16.974372
-33.942874
-83.082129
-80.18396
-180.74978
-198.98575
-87.152796
-60.975083
-17.785237
54.727248
65.190192
-30.151673
-209.78204
-214.26925
-126.4705
39.527141
-35.872284
-45.389881
-35.229954
-102.95139
-227.43657
-206.01519
-144.82977
-105.30223
-51.725335
-55.257714
-70.369134
-140.19866
-161.45569
-210.88708
-194.45452
-124.0298
-68.579774
-69.937079
-94.228675
-193.97495
-216.01208
-215.96818
-201.69109
-142.7155
-89.876143
-91.118988
-117.96781
-203.48039
-219.19545
-207.83201
-213.41275
-164.34175
-117.884
-118.84266
-144.88536
-212.52886
-218.78366
-39.531456
-41.296224
-81.583069
-47.895753
-70.065944
-91.085445
-68.993103
-103.00921
-168.48275
-106.99161
-85.425644
-52.73087
-48.904889
-114.34348
-125.41994
-165.82958
-187.05085
-114.9713
-96.617294
-49.94944
56.036621
8.9721685
-138.66845
-175.20459
-201.0659
-128.71837
-60.015289
-61.327861
-80.124094
-19.832968
-124.3029
-230.81562
-202.34944
-146.47096
-123.36373
-76.600924
-84.372925
-80.549728
-142.70685
-151.10994
-205.06641
-193.96628
-138.64444
-89.83398
-95.026037
-104.60024
-194.90925
-220.67032
-205.55056
-201.34395
-153.15081
-107.20977
-111.34284
-125.37327
-200.08273
-221.25239
-196.37922
-210.09843
-169.77313
-129.75796
-132.72158
-147.80068
-204.57674
-216.97374
-67.303517
-129.30718
-124.98757
-79.941404
-104.98152
-109.40435
-119.35399
-76.402093
-190.17682
-151.49469
-127.2189
-81.070479
-77.284323
-115.47051
-141.97923
-200.15059
-193.42706
-159.29291
-50.171277
-78.902275
6.3427593
-91.527358
-170.25971
-199.61575
-203.3206
-166.69845
-84.909276
-83.546416
-87.958639
-57.856221
-181.09624
-211.47092
-205.39042
-177.91758
-124.1085
-95.280583
-91.613364
-81.342557
-182.95874
-197.06883
-207.63642
-188.45721
-138.86347
-104.35362
-100.35948
-107.65575
-191.13292
-214.21662
-205.24667
-193.81157
-151.44905
-118.73981
-115.61457
-127.38657
-198.41836
-220.83536
-204.8408
-199.87652
-165.87579
-136.73799
-134.24407
-146.63257
-200.06042
-229.80508
-116.16106
-105.06703
-154.52237
-95.811121
-125.59965
-126.32825
-128.97819
-65.937142
-186.54751
-152.87256
-106.65806
-96.299255
-97.921112
-98.640088
-142.65201
-207.48006
-193.01554
-155.9796
-17.45481
-95.830634
-19.321351
-112.6263
-127.82975
-208.58236
-197.62884
-165.6051
-58.603114
-98.690634
-26.426922
-63.284171
-169.45579
-203.09314
-197.56946
-173.91722
-128.25097
-107.87457
-116.20567
-75.797547
-181.4725
-202.42886
-200.44691
-181.35502
-141.54142
-120.75629
-122.24755
-124.3783
-183.52865
-198.82715
-199.8878
-185.87048
-152.46694
-131.44966
-132.57092
-145.44777
-189.98718
-214.11689
-200.72813
-191.18983
-165.0006
-145.84064
-146.74609
-160.79802
-195.43708
-209.6953
-100.84167
-84.773325
5.1170195
-107.99466
-82.197325
-84.472565
-254.84704
-164.31863
-176.64822
-128.60411
95.460932
-110.70126
-55.728283
-28.4943
-235.21341
-233.06998
-190.57457
-131.64043
-77.072845
-111.98886
-16.050383
-104.40809
-28.39354
-234.30794
-193.70608
-140.07581
-50.866142
-114.25855
-4.3442525
-94.846329
-130.70577
-218.78371
-194.83231
-164.88722
-161.32303
-122.42193
-158.38542
-101.93196
-165.60618
-210.80374
-195.2451
-175.10384
-169.03912
-132.46435
-151.61248
-117.79469
-166.35917
-208.0326
-194.08226
-181.51625
-173.47848
-138.1396
-154.33362
-141.05452
-169.86581
-205.01263
-193.42438
-186.51474
-179.06233
-150.38343
-164.03058
-160.5811
-178.70167
-202.96669
-116.08023
-116.92692
-135.0447
-23.766139
-43.546513
-115.64093
-230.62306
-166.91715
-157.45048
-111.69791
-56.78638
36.395611
7.4566125
-60.591837
-192.5877
-201.94582
-163.79301
-107.19571
-156.05451
-88.620093
-66.886877
-104.69121
-95.962336
-211.84635
-208.55322
8.8849276
-68.501632
-80.450817
18.232154
-100.2676
-128.01813
-203.86249
-193.42369
-120.81218
-90.278648
-178.46302
-173.57933
-110.97145
-178.03807
-199.73328
-188.60959
-153.73586
-116.85779
-171.80811
-165.51727
-123.46679
-178.40018
-196.93387
-185.6225
-163.31153
-132.98959
-170.16169
-166.71336
-145.07203
-180.87086
-196.38325
-183.49348
-168.41136
-147.84403
-173.7935
-174.86385
-162.25548
-184.88633
-195.39846
-158.18035
-155.04339
-75.570536
-126.72498
-115.14869
-0.25015477
-10.614942
-84.449169
-171.14855
-103.72728
-33.809446
-107.81088
-126.02537
72.133947
-137.66247
-53.544273
-177.93501
-114.15439
-59.68531
-112.7594
-143.3419
-111.95801
-131.44704
-131.822
-200.13147
-95.435635
-107.9653
-95.218341
-146.6133
-26.968295
-160.0036
-107.98882
-191.72523
-68.124661
-113.5556
-135.81239
-171.80307
-157.43726
-120.4563
-200.73903
-181.8778
-180.10361
-123.81051
-136.50483
-164.52689
-164.69856
-180.06616
-197.53102
-180.14564
-183.73125
-140.97988
-141.34084
-164.9575
-173.20741
-182.69939
-195.54606
-179.29905
-183.6783
-151.22111
-150.49764
-169.31787
-178.16285
-184.76375
-192.65672
-212.5693
-176.6658
-71.547488
-175.61664
-137.82788
-79.183089
-0.213246
-109.59579
-204.65477
-124.84875
-27.781156
-203.30053
-176.66691
-133.81896
-162.84259
5.2453689
-148.60707
-134.68917
-47.137502
-56.247568
-141.11273
-144.83021
-98.364529
-173.9442
-164.60646
-115.47873
-106.37562
-98.927671
-143.3487
-148.18902
-107.95206
-107.7654
-169.75718
-83.222373
-108.4005
-126.49496
-130.15512
-176.73281
-178.75447
-121.08289
-166.21254
-187.3967
-118.29299
-153.24655
-163.58372
-168.0127
-95.466265
-153.73315
-166.74111
-183.06911
-126.2266
-149.95554
-163.59219
-166.71091
-149.79198
-157.44479
-168.43324
-181.88998
-145.49653
-155.3592
-165.76975
-170.26661
-165.46064
-160.06745
-268.84869
-91.427149
-77.756069
-134.29512
-122.52006
-91.96911
24.629836
-90.685221
-204.61572
-197.27538
-42.184184
-180.56912
-164.51979
-135.37157
-68.919443
-150.89727
-196.73478
-104.94456
-46.681283
10.084306
-142.57448
-136.6031
-70.819618
-107.52459
-69.943705
-163.02722
-99.559386
-107.38788
-143.87648
-142.90683
-66.408039
-155.47492
-128.02937
-152.0266
-94.743873
-101.20535
-144.06901
-149.37647
-139.77331
-83.203044
-153.37685
-205.43706
-105.75345
-163.97364
-160.60282
-156.79675
-125.03624
-105.48223
-157.03451
-190.6126
-111.37009
-159.76142
-159.8636
-167.15572
-79.812447
-144.02112
-160.95241
-181.94999
-122.15396
-161.3987
-162.10665
-170.47409
-166.72891
-150.04857
-152.56776
-55.905775
-9.0683279
-81.332475
-99.570683
-123.87413
-127.26837
-65.877204
-88.044201
-171.78442
-18.18472
-144.49287
-149.68599
-131.60847
-134.61201
-146.83984
-89.156388
-131.66637
-3.6462974
-69.57135
-140.20496
-134.48289
-164.26316
-54.634855
-74.603947
-157.07441
-93.789329
-132.33686
-140.23611
-136.50972
-36.177048
-120.0857
-49.539559
-173.43996
-82.726729
-139.75275
-147.87209
-141.96415
-94.92795
-73.850009
-186.08993
-190.88789
-92.154892
-152.89135
-149.64228
-151.26326
-132.83139
-79.586944
-180.68331
-174.77165
-99.249977
-152.95897
-153.41076
-160.55507
-54.373603
-144.74683
-176.77071
-166.94982
-113.23917
-156.95171
-155.38316
-164.05451
-104.27846
-147.2364
-123.27969
-25.723733
-20.685458
-27.27355
-76.700515
-113.65858
-129.17009
-102.44965
-47.457131
-152.23156
-118.2835
-119.56969
-139.21769
-112.6542
-131.15793
-176.61686
-66.308071
-118.04354
54.898938
-111.94503
-135.99624
-98.740752
-157.33379
-89.912201
-77.97072
-143.03517
-108.88226
-127.78454
-137.43566
-129.08457
8.5226744
-90.301119
-18.103122
-168.82301
-97.736018
-137.57266
-140.96242
-134.79023
-75.439402
-41.480417
-189.8461
-171.55119
-68.433803
-140.32695
-141.78963
-148.52363
-117.73156
-48.730156
-185.33547
-184.25272
-32.931392
-151.02146
-149.34046
-158.64785
-56.290242
-146.47704
-180.29974
-163.96235
-62.79466
-150.21676
-151.50621
-160.63765
-153.24543
-146.75126
-111.95328
-7.7289985
55.172204
0.61210843
-63.402914
-108.39231
-144.36744
-86.194562
-86.683212
-129.8996
-50.54127
-128.06362
-132.12476
-105.0957
-145.3961
-170.62541
-112.68052
-112.80628
-43.266734
-127.21998
-131.17267
-83.293628
-168.66672
-108.32975
-157.71167
-109.03307
-58.786967
-128.53457
-132.75771
-119.88804
20.129805
-60.656736
-3.8329926
-170.15797
-119.78712
-134.21363
-135.12996
-124.24895
-75.316368
-29.899198
-145.72863
-77.052003
-105.30556
-136.06685
-137.66656
-144.02045
-54.567011
-30.589983
-141.63073
-132.64066
-63.408359
-140.55221
-141.3743
-151.97717
-48.070646
-142.41178
-142.88488
-142.33887
-57.516123
-141.71998
-143.77556
-153.31007
-150.28941
-140.15678
-40.606682
30.919274
-5.9963231
17.245617
-53.429375
-109.3841
-110.94811
-88.880287
-62.117692
-94.390038
-114.23371
-126.38873
-131.09019
-109.53304
-112.74838
-166.70949
-118.8708
-63.604673
-117.95365
-125.36115
-130.45309
-105.03259
-127.05946
-146.80878
-126.51703
-66.379145
-122.4386
-125.69767
-130.81859
-121.29111
-36.721069
-56.848682
-127.29508
-117.09669
-132.52573
-126.84388
-132.38705
-123.27493
-109.31452
-37.376855
-114.22202
-102.14524
-135.86187
-128.35985
-134.06763
-141.4532
-60.216175
-87.840287
-127.06375
-94.920693
-142.92308
-129.34049
-136.18097
-143.33994
-82.992321
-124.64974
-117.26371
-137.414
-142.59331
-124.5293
-138.00439
-143.32585
-128.46496
-125.54226
-62.282649
-22.691209
4.0268942
25.472153
-43.850317
-117.78492
-131.48171
-38.087467
-54.22604
-112.58819
-111.14429
-122.72529
-128.89259
-117.83243
-129.79035
-140.50353
-107.28168
-73.172671
-112.78355
-122.12432
-128.49761
-122.32113
-136.80002
-133.57783
-116.31989
-81.37268
-114.5137
-122.28115
-128.33294
-125.24744
-161.14775
-81.565177
-102.7159
-99.618993
-118.59955
-123.08739
-128.66028
-126.01267
-15.030261
-76.554239
-130.69267
-94.942764
-122.29278
-124.40312
-129.31558
-136.66313
-40.298954
-138.62639
-128.67499
-82.248294
-128.03583
-125.68229
-130.54745
-139.45612
-48.425951
-133.15644
-112.38579
-82.233167
-130.95698
-125.41492