/*--------------------------------*- C++ -*----------------------------------*\
  =========                 |
  \\      /  F ield         | OpenFOAM: The Open Source CFD Toolbox
   \\    /   O peration     | Website:  https://openfoam.org
    \\  /    A nd           | Version:  13
     \\/     M anipulation  |
\*---------------------------------------------------------------------------*/
FoamFile
{
    format      ascii;
    class       surfaceScalarField;
    location    "0.1";
    object      phi;
}
// * * * * * * * * * * * * * * * * * * * * * * * * * * * * * * * * * * * * * //

dimensions      [0 3 -1 0 0 0 0];

internalField   nonuniform List<scalar> 
150720
(
2.4369588e-10
2.3546424e-09
7.1720711e-10
2.7859914e-10
1.189816e-10
2.8594624e-09
8.5939644e-10
-9.104991e-12
2.8651683e-09
8.570629e-10
1.1741024e-13
2.7654384e-09
8.1948381e-10
8.946884e-12
2.7657566e-09
8.1955854e-10
-1.2024547e-10
2.8661414e-09
8.5719551e-10
-2.486739e-10
2.8631298e-09
8.5944315e-10
2.345721e-09
7.1703516e-10
2.827145e-10
1.0368538e-09
3.4981198e-09
1.6854483e-09
-4.056762e-10
3.8612728e-10
5.0137364e-09
1.9565557e-09
-1.3476947e-11
4.7776284e-09
1.9472473e-09
1.5510159e-13
4.3394598e-09
1.8724498e-09
1.3125221e-11
4.3402911e-09
1.8725986e-09
-3.8883619e-10
4.7806638e-09
1.9475423e-09
-1.0469044e-09
5.0245474e-09
1.9567539e-09
3.4811946e-09
1.6853667e-09
-4.0764135e-10
8.8765269e-10
4.1775004e-09
2.3095067e-09
-5.5047793e-10
2.3474925e-10
6.4071267e-09
2.5855752e-09
-8.0925203e-11
5.8564685e-09
2.5628964e-09
3.9447422e-13
5.1084445e-09
2.4757576e-09
8.1030278e-11
5.1098164e-09
2.4759009e-09
-2.3686432e-10
5.8614877e-09
2.5631326e-09
-8.9493981e-10
6.4229859e-09
2.585699e-09
4.1580886e-09
2.3095428e-09
-5.5531463e-10
5.5416573e-10
4.5756482e-09
2.7143198e-09
-4.7461273e-10
6.5631619e-11
7.1536321e-09
2.9340493e-09
-1.0110804e-10
6.3174622e-09
2.8977666e-09
6.5229806e-13
5.3870687e-09
2.8116362e-09
1.0178403e-10
5.3889585e-09
2.8117469e-09
-6.6404748e-11
6.3238276e-09
2.8978696e-09
-5.5701384e-10
7.1716094e-09
2.9340062e-09
4.5584315e-09
2.7143984e-09
-4.7973448e-10
1.9019822e-10
4.843109e-09
2.952797e-09
-3.5247667e-10
-6.312084e-11
7.3651885e-09
3.099742e-09
-7.8544356e-11
6.3332501e-09
3.0576149e-09
6.9817125e-13
5.3861999e-09
2.9796056e-09
7.9522082e-11
5.3884181e-09
2.9796958e-09
6.3705914e-11
6.3400098e-09
3.0576133e-09
-1.8929746e-10
7.3830244e-09
3.0995678e-09
4.8321199e-09
2.9528646e-09
-3.5787113e-10
-1.537517e-10
5.0448893e-09
3.0672259e-09
-1.9131644e-10
-1.7473237e-10
7.1694136e-09
3.1406936e-09
-4.3382898e-11
6.0292563e-09
3.0965824e-09
5.9292871e-13
5.2376995e-09
3.0284626e-09
4.455153e-11
5.2398515e-09
3.0285461e-09
1.7672548e-10
6.0352538e-09
3.0965201e-09
1.573228e-10
7.1859372e-09
3.1404279e-09
5.0423084e-09
3.0672742e-09
-1.9620181e-10
-3.8577481e-10
5.1646695e-09
3.0823066e-09
-2.6415231e-11
-1.9265427e-10
6.6689755e-09
3.0972143e-09
3.3322582e-11
5.529543e-09
3.0636332e-09
4.5392635e-14
5.0496915e-09
3.0111819e-09
-3.2833544e-11
5.0513456e-09
3.0112815e-09
1.9506006e-10
5.5337001e-09
3.0635568e-09
3.9047431e-10
6.6835493e-09
3.0968704e-09
5.1704157e-09
3.0823146e-09
-3.0050872e-11
-5.2374644e-10
3.0390152e-09
7.424298e-11
5.2310132e-09
-8.9862473e-11
3.016504e-09
5.874443e-09
2.4742512e-10
2.9915027e-09
4.8566081e-09
-4.1354991e-13
2.9496745e-09
5.0037111e-09
-2.4704548e-10
2.9497759e-09
5.004057e-09
9.3491982e-11
2.9913972e-09
4.8576208e-09
5.2843473e-10
3.0160727e-09
5.8883893e-09
3.0389541e-09
7.1234935e-11
5.2445168e-09
3.2817858e-10
-1.7688793e-10
3.2741421e-10
2.3850226e-10
1.2777615e-10
5.9778463e-10
4.6201425e-10
-4.1386336e-11
5.5148041e-10
4.7474498e-10
2.8651032e-13
3.3073942e-10
4.4707155e-10
4.137172e-11
3.3134404e-10
4.4712929e-10
-1.2933773e-10
5.5310914e-10
4.7479582e-10
-3.3391833e-10
6.0198689e-10
4.6203687e-10
-1.8666469e-10
3.274871e-10
2.4229443e-10
1.2817093e-09
-2.2693538e-10
1.0111391e-09
-5.5735257e-10
3.9952119e-10
2.1350575e-09
1.3014709e-09
-9.5022325e-11
1.6782421e-09
1.3150291e-09
5.9376026e-13
8.5747673e-10
1.2500964e-09
9.5109447e-11
8.5922684e-10
1.2502001e-09
-4.0282916e-10
1.6834419e-09
1.3151482e-09
-1.2935973e-09
2.1478777e-09
1.3016312e-09
-2.4568059e-10
1.011551e-09
-5.6076577e-10
1.0396744e-09
1.4265902e-10
1.5712187e-09
-6.7098079e-10
1.2575239e-10
3.7427235e-09
1.8918313e-09
-2.222856e-10
2.7020131e-09
1.8871634e-09
9.7161453e-13
1.3044528e-09
1.8055243e-09
2.230794e-10
1.3074592e-09
1.8055608e-09
-1.2832219e-10
2.7109681e-09
1.887008e-09
-1.0488825e-09
3.7624426e-09
1.8916945e-09
1.2021539e-10
1.5715733e-09
-6.7680896e-10
5.2894587e-10
8.16631e-10
2.0022806e-09
-4.9087869e-10
-1.6695558e-10
5.0828426e-09
2.2898316e-09
-2.9041039e-10
3.4577973e-09
2.2654372e-09
1.2129955e-12
1.6439294e-09
2.1805362e-09
2.9175265e-10
1.6481944e-09
2.180472e-09
1.6607747e-10
3.46961e-09
2.2649029e-09
-5.3356654e-10
5.1068568e-09
2.289236e-09
7.9591294e-10
2.0023127e-09
-4.9717831e-10
-4.3940917e-11
1.7166777e-09
2.3212303e-09
-2.24539e-10
-4.0391932e-10
5.9833744e-09
2.5591887e-09
-2.9350471e-10
3.8787547e-09
2.526243e-09
1.1253221e-12
1.8826531e-09
2.4462518e-09
2.9495463e-10
1.8879455e-09
2.4461154e-09
4.0420818e-10
3.8925227e-09
2.525447e-09
4.3426555e-11
6.0089718e-09
2.5582344e-09
1.7024074e-09
2.3208779e-09
-2.3108129e-10
-5.7582932e-10
2.6990333e-09
2.54218e-09
1.1851952e-10
-6.0003258e-10
6.4191675e-09
2.7291038e-09
-2.5430869e-10
3.9337189e-09
2.6958944e-09
7.3810649e-13
2.0318894e-09
2.6241796e-09
2.5550488e-10
2.0377113e-09
2.6240135e-09
6.0171332e-10
3.9478969e-09
2.6949374e-09
5.7871755e-10
6.4445181e-09
2.7278774e-09
2.6960467e-09
2.5413887e-09
1.1096376e-10
-9.6289144e-10
3.6053368e-09
2.6751962e-09
4.6369843e-10
-6.570575e-10
6.3850151e-09
2.8255327e-09
-1.563717e-10
3.6873636e-09
2.8093027e-09
-2.3599356e-13
2.1331151e-09
2.7538206e-09
1.563153e-10
2.1387637e-09
2.7536778e-09
6.5908998e-10
3.7003448e-09
2.8083343e-09
9.6710958e-10
6.4092206e-09
2.8241483e-09
3.6137231e-09
2.6739165e-09
4.5783137e-10
-1.1833165e-09
2.7328841e-09
6.7607203e-10
4.4187124e-09
-4.9885238e-10
2.8647423e-09
5.8523127e-09
1.1392921e-10
2.8580772e-09
3.2080075e-09
-1.3047972e-12
2.8141347e-09
2.3838889e-09
-1.152737e-10
2.8140084e-09
2.3885001e-09
5.0145195e-10
2.8571042e-09
3.2179122e-09
1.1876539e-09
2.8632928e-09
5.8757985e-09
2.7311376e-09
6.7085445e-10
4.4383391e-09
3.3307701e-10
-4.8730885e-10
2.2711126e-10
2.545348e-10
9.8556069e-11
3.6312991e-10
3.3340529e-10
-7.783136e-11
3.0401036e-10
3.4712205e-10
3.2295524e-13
3.6951482e-11
3.3196576e-10
7.7760956e-11
3.7772909e-11
3.3191839e-10
-1.0037489e-10
3.0598105e-10
3.4695062e-10
-3.3901377e-10
3.6741113e-10
3.3326462e-10
-4.9710826e-10
2.2733458e-10
2.5824703e-10
1.3315967e-09
-9.1330642e-10
7.1166917e-10
-6.0612921e-10
3.3022726e-10
1.7053336e-09
9.6063668e-10
-1.8599435e-10
1.149589e-09
9.8567216e-10
6.5655365e-13
1.4902164e-10
9.5137531e-10
1.8601619e-10
1.5138856e-10
9.5122482e-10
-3.341141e-10
1.1560331e-09
9.8522639e-10
-1.3443455e-09
1.718906e-09
9.6036776e-10
-9.3342445e-10
7.1241969e-10
-6.0889797e-10
1.0201188e-09
-7.8326504e-10
1.1282297e-09
-7.0717123e-10
-2.0396743e-11
3.2212421e-09
1.4164384e-09
-3.5494807e-10
1.9389068e-09
1.4323969e-09
9.448763e-13
2.0814055e-10
1.3905125e-09
3.5548065e-10
2.122598e-10
1.3901538e-09
1.7008825e-11
1.9502255e-09
1.4312875e-09
-1.0306358e-09
3.2428271e-09
1.4154179e-09
-8.0877819e-10
1.1287079e-09
-7.1241656e-10
4.1037628e-10
-1.9789906e-10
1.4829078e-09
-4.7636946e-10
-3.6733066e-10
4.5285413e-09
1.7602394e-09
-4.4703145e-10
2.518213e-09
1.7658318e-09
1.0276524e-12
2.1587835e-10
1.7247394e-09
4.4782147e-10
2.2177734e-10
1.7241606e-09
3.6518189e-10
2.5337815e-09
1.7639865e-09
-4.1667166e-10
4.5556599e-09
1.7582567e-09
-2.2332158e-10
1.4826263e-09
-4.8244187e-10
-2.4662111e-10
7.3082329e-10
1.7776762e-09
-1.3854716e-10
-6.6069709e-10
5.4670808e-09
2.0347251e-09
-4.5645263e-10
2.7973651e-09
2.0428464e-09
7.5536829e-13
1.9640041e-10
2.0085217e-09
4.5705744e-10
2.0378316e-10
2.0078075e-09
6.5969468e-10
2.8160978e-09
2.0404935e-09
2.4470385e-10
5.496896e-09
2.0319891e-09
7.117132e-10
1.7764981e-09
-1.4595108e-10
-8.8079301e-10
1.8416456e-09
2.0125612e-09
2.9958952e-10
-8.9159943e-10
5.9563475e-09
2.2506435e-09
-4.0865624e-10
2.739414e-09
2.2709022e-09
1.6931193e-13
1.6507887e-10
2.2466756e-09
4.0867747e-10
1.7340862e-10
2.2458799e-09
8.9191215e-10
2.7595606e-09
2.26824e-09
8.8213669e-10
5.9872114e-09
2.2473375e-09
1.8329029e-09
2.010467e-09
2.9186875e-10
-1.3349481e-09
2.9496005e-09
2.1872022e-09
7.1498715e-10
-9.5277189e-10
5.9796188e-09
2.4200852e-09
-2.844255e-10
2.410509e-09
2.4698614e-09
-1.0194334e-12
1.7187031e-10
2.4636231e-09
2.828102e-10
1.8040596e-10
2.4628508e-09
9.5326674e-10
2.430255e-09
2.4671834e-09
1.3375646e-09
6.0106003e-09
2.4164616e-09
2.9525561e-09
2.1841743e-09
7.0765357e-10
-1.5909793e-09
2.3139776e-09
9.8282056e-10
3.9766658e-09
-7.6106923e-10
2.553163e-09
5.461288e-09
2.6160465e-11
2.6213811e-09
1.8599753e-09
-2.3454308e-12
2.6252078e-09
3.8930313e-10
-2.9582086e-11
2.6244557e-09
3.971953e-10
7.6200581e-10
2.6187028e-09
1.8770685e-09
1.5935467e-09
2.5493518e-09
5.4930004e-09
2.3101281e-09
9.7577301e-10
3.9913392e-09
3.3792981e-10
-5.6323899e-10
1.7746863e-10
2.749518e-10
7.3087221e-11
3.2500463e-10
2.7324325e-10
-1.0546362e-10
2.3245551e-10
2.9321739e-10
3.0596646e-13
-6.1521996e-11
2.8771818e-10
1.0527977e-10
-6.06132e-11
2.8755779e-10
-7.5164648e-11
2.346e-10
2.9279504e-10
-3.438835e-10
3.2908849e-10
2.72895e-10
-5.7276484e-10
1.7779932e-10
2.7841661e-10
1.3980631e-09
-1.1740362e-09
5.8547807e-10
-6.6107474e-10
2.8650525e-10
1.5844962e-09
8.1270293e-10
-2.4966648e-10
8.9934054e-10
8.5495887e-10
5.8563841e-13
-2.0557056e-10
8.4517176e-10
2.4944855e-10
-2.0297116e-10
8.4471988e-10
-2.9095675e-10
9.0639894e-10
8.5383277e-10
-1.4114569e-09
1.5980907e-09
8.1186567e-10
-1.1953165e-09
5.8642838e-10
-6.6291396e-10
1.0372864e-09
-1.255199e-09
9.4103011e-10
-7.6892409e-10
-1.1750513e-10
2.9491275e-09
1.2065987e-09
-4.4714752e-10
1.4107958e-09
1.250584e-09
6.8768653e-13
-5.0663564e-10
1.2437423e-09
4.4708822e-10
-5.0212269e-10
1.2429048e-09
1.1315138e-10
1.4232879e-09
1.2483353e-09
-1.0491334e-09
2.9713447e-09
1.2044487e-09
-1.283853e-09
9.4138557e-10
-7.7327455e-10
3.5700523e-10
-8.6438861e-10
1.2485582e-09
-5.1346593e-10
-4.9925407e-10
4.0548299e-09
1.5107962e-09
-5.5017563e-10
1.6715772e-09
1.555972e-09
5.2402482e-13
-8.9027992e-10
1.557684e-09
5.4992613e-10
-8.8384148e-10
1.5564773e-09
4.9563562e-10
1.689003e-09
1.552562e-09
-3.6531979e-10
4.0834446e-09
1.5071122e-09
-8.9503238e-10
1.2476584e-09
-5.1917258e-10
-3.5790921e-10
-1.0078428e-10
1.5119247e-09
-1.3994359e-10
-8.144988e-10
4.778505e-09
1.7676397e-09
-5.553173e-10
1.6282057e-09
1.8270364e-09
7.6260909e-14
-1.2787183e-09
1.8415665e-09
5.5449207e-10
-1.2705655e-09
1.8401158e-09
8.1167614e-10
1.6494914e-09
1.822821e-09
3.5391354e-10
4.8104422e-09
1.7627542e-09
-1.2656627e-10
1.5096731e-09
-1.4772765e-10
-1.0470038e-09
8.8364426e-10
1.7321717e-09
3.4296475e-10
-1.0511562e-09
5.047304e-09
1.9859969e-09
-4.914313e-10
1.2709483e-09
2.0684347e-09
-6.5249675e-13
-1.6199079e-09
2.0970864e-09
4.8971639e-10
-1.6105513e-09
2.0954969e-09
1.0494425e-09
1.29428e-09
2.0637253e-09
1.0462526e-09
5.0807631e-09
1.9802064e-09
8.6757133e-10
1.728551e-09
3.3403093e-10
-1.5282763e-09
1.8935928e-09
1.9079514e-09
7.9757862e-10
-1.0933405e-09
4.8573419e-09
2.1751114e-09
-3.3862545e-10
6.9017179e-10
2.2959228e-09
-1.9218158e-12
-1.8380157e-09
2.3450273e-09
3.3510235e-10
-1.8281778e-09
2.3434532e-09
1.0915731e-09
7.1381937e-10
2.2911732e-09
1.52876e-09
4.8912116e-09
2.1688262e-09
1.8892505e-09
1.9030124e-09
7.8824273e-10
-1.7876383e-09
2.0462369e-09
1.0867015e-09
2.8622703e-09
-8.5812602e-10
2.3382699e-09
4.1427228e-09
1.6413865e-11
2.484792e-09
-4.7778943e-11
-3.3475963e-12
2.5453859e-09
-1.7384324e-09
-2.2096335e-11
2.543832e-09
-1.7288054e-09
8.5667802e-10
2.4801117e-09
-2.6363803e-11
1.7879816e-09
2.3316773e-09
4.1775826e-09
2.0401633e-09
1.0770213e-09
2.8701756e-09
3.5700203e-10
-6.3340106e-10
1.5762809e-10
2.9623959e-10
6.3423653e-11
3.1948827e-10
2.4733336e-10
-1.2427663e-10
2.0655638e-10
2.743613e-10
2.4804545e-13
-1.134169e-10
2.7661041e-10
1.2391981e-10
-1.1243049e-10
2.7631652e-10
-6.5776759e-11
2.088945e-10
2.7359712e-10
-3.6279694e-10
3.2319898e-10
2.467162e-10
-6.4227823e-10
1.5803603e-10
2.9924459e-10
1.4917564e-09
-1.3472049e-09
5.1984143e-10
-7.123159e-10
2.7371116e-10
1.6136519e-09
7.3658453e-10
-2.9521795e-10
8.3027014e-10
8.0017422e-10
3.9833217e-13
-3.7484381e-10
8.109824e-10
2.9461899e-10
-3.721225e-10
8.1019124e-10
-2.7879678e-10
8.379663e-10
7.9817675e-10
-1.5055809e-09
1.6268392e-09
7.3500961e-10
-1.3693886e-09
5.2091811e-10
-7.129603e-10
1.0895679e-09
-1.5052406e-09
8.3707404e-10
-8.2757609e-10
-1.7687677e-10
2.9907811e-09
1.0959142e-09
-5.1840318e-10
1.24772e-09
1.1746606e-09
2.5052297e-13
-8.4798877e-10
1.1982336e-09
5.1749034e-10
-8.4334827e-10
1.1968907e-09
1.72277e-10
1.2604506e-09
1.1710644e-09
-1.1027258e-09
3.0138931e-09
1.0923976e-09
-1.5371952e-09
8.3718161e-10
-8.3071525e-10
3.4165534e-10
-1.1630157e-09
1.1157341e-09
-5.5105616e-10
-5.9752564e-10
4.0613842e-09
1.3793741e-09
-6.3408658e-10
1.3691016e-09
1.4711513e-09
-1.5713947e-13
-1.4348108e-09
1.5105766e-09
6.324086e-10
-1.4281762e-09
1.5087395e-09
5.9211589e-10
1.3872656e-09
1.4660397e-09
-3.5217176e-10
4.0915192e-09
1.3737739e-09
-1.1996247e-09
1.114104e-09
-5.5618782e-10
-4.3401408e-10
-4.2978152e-10
1.3595294e-09
-1.4682474e-10
-9.399041e-10
4.7085235e-09
1.6263904e-09
-6.3889663e-10
1.1531487e-09
1.7419819e-09
-7.8885432e-13
-2.0306058e-09
1.7992537e-09
6.3620818e-10
-2.0221516e-09
1.7970942e-09
9.3480439e-10
1.1756601e-09
1.7358303e-09
4.2753819e-10
4.7423267e-09
1.6192129e-09
-4.6364836e-10
1.356112e-09
-1.5487693e-10
-1.1807307e-09
5.4031508e-10
1.5693032e-09
3.7350266e-10
-1.1904947e-09
4.8594977e-09
1.8447867e-09
-5.6494835e-10
6.0536072e-10
1.9906764e-09
-1.6632293e-12
-2.5620046e-09
2.0652001e-09
5.6106742e-10
-2.5522434e-09
2.062858e-09
1.1862384e-09
6.3032286e-10
1.9838916e-09
1.1774361e-09
4.8948605e-09
1.8364749e-09
5.1489445e-10
1.5641279e-09
3.6331645e-10
-1.6951906e-09
1.5400308e-09
1.743249e-09
8.601773e-10
-1.2250883e-09
4.5223182e-09
2.0421887e-09
-3.9121378e-10
-1.6311924e-10
2.2305283e-09
-2.9060292e-12
-2.9320018e-09
2.3267167e-09
3.854796e-10
-2.9215672e-09
2.3243913e-09
1.2205256e-09
-1.3724303e-10
2.2236931e-09
1.6931008e-09
4.5578173e-09
2.0332943e-09
1.5258824e-09
1.7364155e-09
8.487097e-10
-1.9643321e-09
1.8888746e-09
1.1636021e-09
2.4981231e-09
-9.5081311e-10
2.2214296e-09
3.6256395e-09
3.9853216e-12
2.436278e-09
-1.0694036e-09
-4.3846541e-12
2.5455911e-09
-2.923837e-09
-1.2182024e-11
2.5432998e-09
-2.9132376e-09
9.4608888e-10
2.4294855e-09
-1.0448878e-09
1.9621042e-09
2.212168e-09
3.6613112e-09
1.8806697e-09
1.1511582e-09
2.4963221e-09
3.7605571e-10
-6.7989838e-10
1.4554948e-10
3.1592129e-10
5.6133386e-11
3.3408523e-10
2.3317047e-10
-1.4067631e-10
2.0257617e-10
2.6859484e-10
1.714746e-13
-1.4287628e-10
2.7863891e-10
1.4014371e-10
-1.4190636e-10
2.7825065e-10
-5.8669834e-11
2.0481333e-10
2.6759734e-10
-3.8167484e-10
3.3737448e-10
2.3234673e-10
-6.8820999e-10
1.461956e-10
3.1837558e-10
1.5834019e-09
-1.4669276e-09
4.8210693e-10
-7.586381e-10
2.669925e-10
1.6900602e-09
6.9701888e-10
-3.3474947e-10
8.2052955e-10
7.8396282e-10
1.8437915e-13
-4.8188591e-10
8.1505818e-10
3.3376444e-10
-4.7930798e-10
8.140128e-10
-2.724325e-10
8.2782373e-10
7.8136329e-10
-1.5976454e-09
1.7030032e-09
6.945938e-10
-1.4902157e-09
4.8336248e-10
-7.5808412e-10
1.1444097e-09
-1.6760056e-09
7.8121253e-10
-8.7947016e-10
-2.2277796e-10
3.107943e-09
1.0452191e-09
-5.8130727e-10
1.1927219e-09
1.1609976e-09
-2.2800493e-13
-1.0787734e-09
1.2140418e-09
5.7943247e-10
-1.0744078e-09
1.2123301e-09
2.1692194e-10
1.2048248e-09
1.1565739e-09
-1.1591158e-09
3.1306923e-09
1.0407463e-09
-1.712007e-09
7.8137733e-10
-8.8152011e-10
3.3384937e-10
-1.3588877e-09
1.046938e-09
-5.8217128e-10
-6.8342872e-10
4.1791701e-09
1.3254251e-09
-7.0893616e-10
1.224122e-09
1.4652586e-09
-9.4052625e-13
-1.8164981e-09
1.5403057e-09
7.0563926e-10
-1.810272e-09
1.5380239e-09
6.7615015e-10
1.2412996e-09
1.459054e-09
-3.4711274e-10
4.209239e-09
1.3184901e-09
-1.4030959e-09
1.0450804e-09
-5.8700025e-10
-4.9893849e-10
-6.348168e-10
1.282434e-09
-1.4803695e-10
-1.0519324e-09
4.7856434e-09
1.5729109e-09
-7.1410408e-10
8.8460313e-10
1.7436725e-09
-1.7792918e-12
-2.5697804e-09
1.8402112e-09
7.0930024e-10
-2.5618142e-09
1.8375568e-09
1.0442453e-09
9.0590721e-10
1.7362777e-09
4.8927202e-10
4.8191154e-09
1.5643097e-09
-6.7933263e-10
1.278508e-09
-1.5688727e-10
-1.3002303e-09
3.3735697e-10
1.4883183e-09
4.090415e-10
-1.3164446e-09
4.8517466e-09
1.7948978e-09
-6.317981e-10
1.9106118e-10
1.9995718e-09
-2.7538291e-12
-3.2485745e-09
2.1149499e-09
6.2550306e-10
-3.2392964e-09
2.1120834e-09
1.3092267e-09
2.1461214e-10
1.991463e-09
1.2935227e-09
4.8862312e-09
1.7850631e-09
2.9911528e-10
1.4823316e-09
3.9687101e-10
-1.846824e-09
1.3374045e-09
1.6626825e-09
9.2734298e-10
-1.3440282e-09
4.3932453e-09
1.9978942e-09
-4.3921462e-10
-7.2766474e-10
2.2444406e-09
-3.89092e-12
-3.7379835e-09
2.380802e-09
4.3113692e-10
-3.7278716e-09
2.3779387e-09
1.3362776e-09
-7.0304892e-10
2.2362135e-09
1.8412412e-09
4.4271872e-09
1.9873746e-09
1.309039e-09
1.6547484e-09
9.1298464e-10
-2.1263137e-09
1.8110074e-09
1.2456546e-09
2.2959307e-09
-1.0370413e-09
2.1834783e-09
3.3419242e-09
-5.6459346e-12
2.455753e-09
-1.7785352e-09
-5.3275104e-12
2.6030166e-09
-3.7957274e-09
-5.1429125e-12
2.600189e-09
-3.7849454e-09
1.028662e-09
2.4475295e-09
-1.7548978e-09
2.1206543e-09
2.1724868e-09
3.3748761e-09
1.8015003e-09
1.2296413e-09
2.2792214e-09
3.9615943e-10
-7.2180013e-10
1.3950419e-10
3.31686e-10
5.3070837e-11
3.50497e-10
2.2576207e-10
-1.5418554e-10
2.0592516e-10
2.6992606e-10
1.7551718e-14
-1.6339269e-10
2.8782852e-10
1.5329743e-10
-1.6241392e-10
2.873847e-10
-5.5462213e-11
2.0731095e-10
2.6904604e-10
-4.0044917e-10
3.5230188e-10
2.2503181e-10
-7.280413e-10
1.3988445e-10
3.339033e-10
1.6679566e-09
-1.5629139e-09
4.5603162e-10
-8.0076752e-10
2.6614496e-10
1.7779504e-09
6.7137715e-10
-3.6780228e-10
8.3946879e-10
7.8436645e-10
-2.2718914e-13
-5.5205146e-10
8.3614186e-10
3.6602172e-10
-5.4958779e-10
8.3493778e-10
-2.7304458e-10
8.4592194e-10
7.818186e-10
-1.6833843e-09
1.7878742e-09
6.6936127e-10
-1.5867027e-09
4.5685138e-10
-7.9821186e-10
1.1966026e-09
-1.7943143e-09
7.425872e-10
-9.2657689e-10
-2.5947892e-10
3.2616413e-09
1.0176097e-09
-6.3538153e-10
1.2019617e-09
1.1744072e-09
-9.7632175e-13
-1.229438e-09
1.2570232e-09
6.3188459e-10
-1.2252308e-09
1.2551123e-09
2.5122002e-10
1.2131942e-09
1.1699662e-09
-1.215298e-09
3.2821112e-09
1.0130273e-09
-1.8369668e-09
7.4196282e-10
-9.2561934e-10
3.3074931e-10
-1.4708452e-09
1.0018315e-09
-6.091119e-10
-7.5630863e-10
4.3705976e-09
1.3035268e-09
-7.7448695e-10
1.1902622e-09
1.4951365e-09
-2.0227596e-12
-2.0670292e-09
1.6054327e-09
7.6895959e-10
-2.0611221e-09
1.6029328e-09
7.4544627e-10
1.2068485e-09
1.488913e-09
-3.4853892e-10
4.3978704e-09
1.2967161e-09
-1.5275706e-09
9.9922931e-10
-6.1208405e-10
-5.546009e-10
-7.2370104e-10
1.2350624e-09
-1.4517163e-10
-1.1505005e-09
4.9811436e-09
1.5582645e-09
-7.8116029e-10
7.7815528e-10
1.7864393e-09
-3.0300505e-12
-2.9258367e-09
1.9208885e-09
7.7380058e-10
-2.9183851e-09
1.9179891e-09
1.1387479e-09
7.9923851e-10
1.7789403e-09
5.4017513e-10
5.0111766e-09
1.5495763e-09
-7.8477292e-10
1.2302766e-09
-1.5439122e-10
-1.4075658e-09
2.8248194e-10
1.4419301e-09
4.4777098e-10
-1.4304769e-09
5.0108347e-09
1.7881176e-09
-6.9266693e-10
-1.1541648e-11
2.0514588e-09
-4.042009e-12
-3.7044741e-09
2.2049624e-09
6.8368911e-10
-3.6958585e-09
2.2018257e-09
1.4191258e-09
1.2105383e-11
2.0431595e-09
1.3959833e-09
5.041298e-09
1.7780842e-09
2.251557e-10
1.4351147e-09
4.3327162e-10
-1.9873039e-09
1.3147377e-09
1.6203661e-09
9.9736458e-10
-1.4557683e-09
4.4790182e-09
1.9981751e-09
-4.8436748e-10
-1.0384725e-09
2.2999707e-09
-4.9899345e-12
-4.2746461e-09
2.4715965e-09
4.7381947e-10
-4.2651499e-09
2.4684207e-09
1.444053e-09
-1.0133337e-09
2.2914191e-09
1.9768309e-09
4.5085706e-09
1.9873241e-09
1.2657292e-09
1.6116166e-09
9.7938916e-10
-2.2805752e-09
1.7735081e-09
1.332642e-09
2.3001702e-09
-1.1226386e-09
2.1893069e-09
3.315253e-09
-1.8670083e-11
2.5124555e-09
-2.1991436e-09
-6.2811328e-12
2.6917627e-09
-4.3757811e-09
5.2975298e-12
2.6886038e-09
-4.3651433e-09
1.1101906e-09
2.5038155e-09
-2.1745128e-09
2.2703262e-09
2.1778692e-09
3.3430526e-09
1.7632724e-09
1.3120335e-09
2.2622497e-09
4.1076123e-10
-7.5316072e-10
1.3431177e-10
3.4759193e-10
5.1546339e-11
3.6488087e-10
2.2009609e-10
-1.6529212e-10
2.088078e-10
2.7795672e-10
-2.9823521e-14
-1.7904512e-10
3.0161135e-10
1.6450373e-10
-1.7818656e-10
3.010377e-10
-5.3664566e-11
2.1047003e-10
2.7674431e-10
-4.1481821e-10
3.6704775e-10
2.1913771e-10
-7.5878084e-10
1.3500978e-10
3.488373e-10
1.7395016e-09
-1.6088321e-09
4.39298e-10
-8.6709658e-10
2.7036136e-10
1.8521523e-09
6.5324596e-10
-3.9482207e-10
8.5788559e-10
8.004721e-10
-3.5433226e-13
-6.0584773e-10
8.6847673e-10
3.9317627e-10
-6.0374924e-10
8.6696986e-10
-2.7533751e-10
8.6328293e-10
7.975195e-10
-1.7526526e-09
1.8635943e-09
6.5012978e-10
-1.641321e-09
4.3745272e-10
-8.5071378e-10
1.2459788e-09
-1.8337466e-09
7.2117136e-10
-9.9964851e-10
-2.8502956e-10
3.3977424e-09
1.003028e-09
-6.7989187e-10
1.2178106e-09
1.2093445e-09
-1.3341901e-12
-1.3454747e-09
1.3180925e-09
6.7629904e-10
-1.3421023e-09
1.3158321e-09
2.7810775e-10
1.2270626e-09
1.2043778e-09
-1.260612e-09
3.4172266e-09
9.9811476e-10
-1.8925622e-09
7.165719e-10
-9.8397978e-10
3.351748e-10
-1.4919344e-09
9.7769741e-10
-6.5285282e-10
-8.1223359e-10
4.5490431e-09
1.2996344e-09
-8.2915553e-10
1.1792159e-09
1.5506531e-09
-2.6140212e-12
-2.2603851e-09
1.6938016e-09
8.2289453e-10
-2.2556541e-09
1.6909761e-09
8.0218683e-10
1.1925631e-09
1.5441203e-09
-3.5035283e-10
4.5735539e-09
1.2929284e-09
-1.5699028e-09
9.715467e-10
-6.4532965e-10
-5.9488034e-10
-7.1971917e-10
1.2108786e-09
-1.5315114e-10
-1.2298003e-09
5.1765342e-09
1.5656934e-09
-8.3768621e-10
7.1680038e-10
1.8567406e-09
-3.7676083e-12
-3.2006612e-09
2.0272459e-09
8.291069e-10
-3.1945837e-09
2.0240442e-09
1.2179383e-09
7.335848e-10
1.8490872e-09
5.815724e-10
5.2020864e-09
1.5574097e-09
-8.056581e-10
1.2032556e-09
-1.556513e-10
-1.4924952e-09
3.167926e-10
1.4202686e-09
4.7764495e-10
-1.5250599e-09
5.1911457e-09
1.8060709e-09
-7.4456664e-10
-1.4338357e-10
2.1311495e-09
-4.8243554e-12
-4.0560975e-09
2.3206565e-09
7.341102e-10
-4.0489283e-09
2.3172357e-09
1.5125225e-09
-1.2441256e-10
2.1227446e-09
1.4815123e-09
5.2147935e-09
1.7963872e-09
2.3331676e-10
1.4113897e-09
4.6626246e-10
-2.1030216e-09
1.3781502e-09
1.6034456e-09
1.0585845e-09
-1.5500588e-09
4.6119235e-09
2.0244346e-09
-5.2349124e-10
-1.2514718e-09
2.3814914e-09
-5.6230516e-12
-4.6878886e-09
2.5855194e-09
5.115137e-10
-4.6796889e-09
2.5820446e-09
1.5365335e-09
-1.2307168e-09
2.3727036e-09
2.092207e-09
4.6328813e-09
2.0135629e-09
1.3025045e-09
1.5934337e-09
1.0412021e-09
-2.4105356e-09
1.7612866e-09
1.4127702e-09
2.3881372e-09
-1.196547e-09
2.2202238e-09
3.367018e-09
-3.1115528e-11
2.5918832e-09
-2.4963308e-09
-6.7929058e-12
2.7995627e-09
-4.8200112e-09
1.6200044e-11
2.7961307e-09
-4.8102088e-09
1.1816668e-09
2.5830035e-09
-2.4753714e-09
2.3992496e-09
2.2086797e-09
3.384488e-09
1.7501876e-09
1.3909473e-09
2.3238917e-09
4.2645565e-10
-7.9562943e-10
1.3359189e-10
3.6989367e-10
4.6893904e-11
3.8215048e-10
2.1750736e-10
-1.7797345e-10
1.9319907e-10
3.0962502e-10
-2.2115142e-13
-1.9501066e-10
3.1886972e-10
1.7681537e-10
-1.941429e-10
3.1814409e-10
-5.198924e-11
1.9710348e-10
3.0844544e-10
-4.2726243e-10
3.7870766e-10
2.1570324e-10
-7.8887695e-10
1.3032634e-10
3.6629797e-10
1.789153e-09
-1.6689215e-09
4.3004559e-10
-9.0660853e-10
2.6919434e-10
1.9159575e-09
6.3939767e-10
-4.236399e-10
8.4606263e-10
8.4044278e-10
-8.3260787e-13
-6.5686002e-10
9.0751881e-10
4.2094235e-10
-6.546165e-10
9.0566852e-10
-2.7365484e-10
8.5224911e-10
8.3697107e-10
-1.8076429e-09
1.926969e-09
6.3585651e-10
-1.6790504e-09
4.2482392e-10
-9.048406e-10
1.2823259e-09
-1.8867487e-09
7.0820762e-10
-1.0515349e-09
-3.0962989e-10
3.5142478e-09
9.9669351e-10
-7.227008e-10
1.2036814e-09
1.2647967e-09
-2.0664574e-12
-1.4484238e-09
1.389022e-09
7.1789013e-10
-1.445112e-09
1.3863711e-09
3.0117601e-10
1.2137211e-09
1.2596199e-09
-1.2983399e-09
3.5325161e-09
9.920836e-10
-1.9159231e-09
7.0238045e-10
-1.0472757e-09
3.3567302e-10
-1.5097591e-09
9.6298665e-10
-6.9795189e-10
-8.6060053e-10
4.7033038e-09
1.306852e-09
-8.78896e-10
1.1483952e-09
1.6242348e-09
-3.5317905e-12
-2.4244072e-09
1.7944208e-09
8.7106355e-10
-2.4199499e-09
1.7912186e-09
8.4854741e-10
1.1625238e-09
1.6178337e-09
-3.549784e-10
4.7277185e-09
1.3012518e-09
-1.5657132e-09
9.5686838e-10
-6.9051005e-10
-6.274899e-10
-7.0297391e-10
1.1974066e-09
-1.6582324e-10
-1.2958868e-09
5.3514709e-09
1.5859233e-09
-8.8782304e-10
6.5399758e-10
1.9430744e-09
-4.7697972e-12
-3.4269708e-09
2.1467563e-09
8.7744828e-10
-3.4213421e-09
2.1432184e-09
1.2819588e-09
6.7143235e-10
1.9356682e-09
6.1107638e-10
5.3771538e-09
1.5788568e-09
-7.7345749e-10
1.1909605e-09
-1.6888418e-10
-1.5598289e-09
3.6957663e-10
1.4105981e-09
4.9694886e-10
-1.6028399e-09
5.3623468e-09
1.838206e-09
-7.9018911e-10
-2.525842e-10
2.2250804e-09
-5.8344689e-12
-4.3397624e-09
2.4490935e-09
7.7779539e-10
-4.3331194e-09
2.445383e-09
1.5885017e-09
-2.3346432e-10
2.216935e-09
1.5457457e-09
5.3870064e-09
1.8292907e-09
2.9499366e-10
1.4032469e-09
4.8543745e-10
-2.1946162e-09
1.4638483e-09
1.5993833e-09
1.1044068e-09
-1.627572e-09
4.754876e-09
2.0648612e-09
-5.5830175e-10
-1.4155687e-09
2.4752055e-09
-6.5220681e-12
-5.0163533e-09
2.7103306e-09
5.4443932e-10
-5.0086217e-09
2.7065855e-09
1.6121754e-09
-1.3951334e-09
2.4666366e-09
2.1816411e-09
4.7764689e-09
2.0546347e-09
1.3923965e-09
1.5910178e-09
1.0866542e-09
-2.5141349e-09
1.762361e-09
1.4756255e-09
2.5012835e-09
-1.2579927e-09
2.2645657e-09
3.4543919e-09
-4.4381956e-11
2.6814458e-09
-2.718742e-09
-7.5406713e-12
2.9158946e-09
-5.1695264e-09
2.7734357e-11
2.9122318e-09
-5.1599977e-09
1.2413637e-09
2.6727481e-09
-2.6985073e-09
2.501074e-09
2.2536909e-09
3.4717474e-09
1.7531794e-09
1.4533262e-09
2.4371524e-09
4.3139095e-10
-8.0610424e-10
1.3428728e-10
3.7401791e-10
4.6245754e-11
3.8379453e-10
2.1885804e-10
-2.0579769e-10
2.0790267e-10
3.537658e-10
-6.8041402e-13
-2.1987967e-10
3.3363211e-10
2.0310073e-10
-2.1852762e-10
3.3289057e-10
-4.9111526e-11
2.0802712e-10
3.5263059e-10
-4.3915172e-10
3.8853988e-10
2.1720357e-10
-8.1740773e-10
1.3142529e-10
3.7715706e-10
1.8286316e-09
-1.6989586e-09
4.2021733e-10
-9.2594903e-10
2.1008066e-10
2.0051826e-09
6.3656061e-10
-4.7366594e-10
8.4258626e-10
8.895058e-10
-2.0191068e-12
-7.2524674e-10
9.4123906e-10
4.6729517e-10
-7.2136643e-10
9.3919305e-10
-2.2667637e-10
8.5255319e-10
8.8641655e-10
-1.8486861e-09
2.0137808e-09
6.3262533e-10
-1.7472642e-09
4.1655787e-10
-9.1056363e-10
1.2891017e-09
-1.8965219e-09
6.9390162e-10
-1.0772324e-09
-3.6290817e-10
3.652346e-09
1.00154e-09
-7.8547384e-10
1.198929e-09
1.3310196e-09
-3.7075023e-12
-1.5725148e-09
1.4545237e-09
7.7594932e-10
-1.5661744e-09
1.4515223e-09
3.4173742e-10
1.2198588e-09
1.3265263e-09
-1.3208701e-09
3.6710209e-09
9.9745114e-10
-1.9821851e-09
6.9061656e-10
-1.0741853e-09
3.1799417e-10
-1.483987e-09
9.5037902e-10
-7.1792141e-10
-9.2707428e-10
4.8775093e-09
1.3267571e-09
-9.3905833e-10
1.1298176e-09
1.7053303e-09
-5.3814737e-12
-2.6022935e-09
1.8905226e-09
9.2636244e-10
-2.5936299e-09
1.8869301e-09
9.084709e-10
1.1559221e-09
1.6996619e-09
-3.4544883e-10
4.9041928e-09
1.3219996e-09
-1.5933267e-09
9.4619961e-10
-7.236384e-10
-6.6760996e-10
-6.4462732e-10
1.1889662e-09
-1.6330934e-10
-1.3690751e-09
5.5454504e-09
1.6194473e-09
-9.4190136e-10
6.1103928e-10
2.034679e-09
-6.7133001e-12
-3.6532217e-09
2.2624964e-09
9.2740891e-10
-3.6430909e-09
2.2585573e-09
1.3514093e-09
6.3962655e-10
2.0279634e-09
6.4561427e-10
5.5747208e-09
1.6141237e-09
-7.6584646e-10
1.1847871e-09
-1.7569259e-10
-1.6242731e-09
4.5783096e-10
1.4080893e-09
5.2432362e-10
-1.6800255e-09
5.556731e-09
1.8826777e-09
-8.3597448e-10
-3.3030541e-10
2.3223742e-09
-7.7546328e-12
-4.6065114e-09
2.5741633e-09
8.1985915e-10
-4.5954026e-09
2.5700809e-09
1.6629108e-09
-3.0132522e-10
2.3148351e-09
1.6067632e-09
5.584455e-09
1.8757041e-09
3.3693369e-10
1.4034976e-09
5.0373224e-10
-2.2775409e-09
1.5799101e-09
1.6038956e-09
1.1509495e-09
-1.7003718e-09
4.9281813e-09
2.1162419e-09
-5.926184e-10
-1.5333834e-09
2.5705301e-09
-8.3179576e-12
-5.3119987e-09
2.8315174e-09
5.7541432e-10
-5.2999908e-09
2.8274415e-09
1.6828717e-09
-1.5045946e-09
2.5624485e-09
2.2611414e-09
4.95257e-09
2.10825e-09
1.4655864e-09
1.5987036e-09
1.1248028e-09
-2.6045944e-09
1.7726135e-09
1.5348764e-09
2.6393756e-09
-1.3160376e-09
2.3183775e-09
3.5858126e-09
-6.0868073e-11
2.7711924e-09
-2.8782996e-09
-9.0974064e-12
3.0281379e-09
-5.4760126e-09
4.1442189e-11
3.0242201e-09
-5.4625187e-09
1.297767e-09
2.762939e-09
-2.8511102e-09
2.5893312e-09
2.3096831e-09
3.6050136e-09
1.7666645e-09
1.5046084e-09
2.5368241e-09
4.3467947e-10
-8.0022849e-10
1.3257619e-10
3.6726012e-10
6.7357714e-11
3.687017e-10
2.1747809e-10
-2.2847565e-10
3.0002737e-10
3.4957181e-10
-1.0113544e-12
-2.3699983e-10
3.4316766e-10
2.2615873e-10
-2.3615735e-10
3.4187783e-10
-6.8746351e-11
3.0103196e-10
3.4650372e-10
-4.3914452e-10
3.7088604e-10
2.167157e-10
-8.1462389e-10
1.3225853e-10
3.7464614e-10
1.8310394e-09
-1.672195e-09
4.0843393e-10
-9.472895e-10
1.9335101e-10
2.0153064e-09
6.2764437e-10
-5.1842917e-10
9.8540241e-10
9.1591095e-10
-3.1380991e-12
-7.7488201e-10
9.6383017e-10
5.1103015e-10
-7.7167522e-10
9.6054268e-10
-1.958732e-10
9.8441383e-10
9.0993805e-10
-1.8417003e-09
2.0234947e-09
6.2584373e-10
-1.7253443e-09
4.0813233e-10
-9.2255427e-10
1.2838e-09
-1.8532553e-09
6.8104283e-10
-1.0898809e-09
-4.3704194e-10
3.7331863e-09
1.004502e-09
-8.4383293e-10
1.3374323e-09
1.3857807e-09
-5.2073237e-12
-1.6660065e-09
1.5070226e-09
8.3136504e-10
-1.6592192e-09
1.5024939e-09
4.2060682e-10