/*--------------------------------*- C++ -*----------------------------------*\
  =========                 |
  \\      /  F ield         | OpenFOAM: The Open Source CFD Toolbox
   \\    /   O peration     | Website:  https://openfoam.org
    \\  /    A nd           | Version:  13
     \\/     M anipulation  |
\*---------------------------------------------------------------------------*/
FoamFile
{
    format      ascii;
    class       surfaceScalarField;
    location    "0.1";
    object      phi;
}
// * * * * * * * * * * * * * * * * * * * * * * * * * * * * * * * * * * * * * //

dimensions      [0 3 -1 0 0 0 0];

internalField   nonuniform List<scalar> 
150720
(
1.4884043e-11
2.6818734e-09
8.9738733e-10
-2.2608955e-16
-1.7328799e-11
2.641697e-09
9.8466043e-10
-1.8408586e-11
2.6457249e-09
9.4949946e-10
1.1613136e-14
2.6470606e-09
9.2866375e-10
1.8430739e-11
2.6470597e-09
9.2866574e-10
1.7346596e-11
2.6457232e-09
9.495055e-10
-1.4874552e-11
2.6416955e-09
9.8467017e-10
2.6818715e-09
8.9739781e-10
6.9023289e-16
-4.348559e-11
4.1718709e-09
2.0135923e-09
-9.6575695e-16
-1.0142287e-10
4.0074807e-09
2.1522568e-09
-6.9037286e-11
3.9960846e-09
2.0773579e-09
2.5546736e-14
4.0021536e-09
2.0359474e-09
6.9085455e-11
4.0021514e-09
2.0359516e-09
1.0146187e-10
3.9960794e-09
2.0773706e-09
4.3509471e-11
4.0074733e-09
2.1522779e-09
4.1718638e-09
2.0136168e-09
3.6221249e-15
-7.8054087e-11
4.8715808e-09
2.7044079e-09
-1.7396415e-15
-1.4517912e-10
4.5725623e-09
2.8281055e-09
-9.4723372e-11
4.5401755e-09
2.7315153e-09
3.38038e-14
4.5519142e-09
2.6815442e-09
9.4787249e-11
4.5519107e-09
2.6815493e-09
1.4523166e-10
4.5401663e-09
2.7315307e-09
7.808681e-11
4.5725486e-09
2.8281316e-09
4.871565e-09
2.7044403e-09
7.2842939e-15
-9.4312676e-11
5.0438343e-09
3.1140824e-09
-2.5440816e-15
-1.5998691e-10
4.6363669e-09
3.1938902e-09
-1.0339801e-10
4.5880245e-09
3.0875828e-09
3.8669939e-14
4.6045113e-09
3.0359869e-09
1.0347132e-10
4.6045066e-09
3.0359921e-09
1.6004823e-10
4.5880117e-09
3.0875984e-09
9.4352501e-11
4.6363476e-09
3.1939173e-09
5.0438087e-09
3.1141181e-09
1.1289009e-14
-9.9283394e-11
4.879796e-09
3.3213045e-09
-3.3802124e-15
-1.5870284e-10
4.4036801e-09
3.3500856e-09
-1.0278603e-10
4.3476104e-09
3.2424766e-09
4.1486262e-14
4.366449e-09
3.1932141e-09
1.0286497e-10
4.3664435e-09
3.193219e-09
1.5877e-10
4.3475948e-09
3.2424912e-09
9.932917e-11
4.4036566e-09
3.3501112e-09
4.8797614e-09
3.3213403e-09
1.5471602e-14
-9.5581314e-11
4.5168817e-09
3.3824379e-09
-4.2419497e-15
-1.479897e-10
4.0149732e-09
3.3650533e-09
-9.6844431e-11
3.9585837e-09
3.2618194e-09
4.3079993e-14
3.9765827e-09
3.2169169e-09
9.6926752e-11
3.9765765e-09
3.2169213e-09
1.4806095e-10
3.9585663e-09
3.2618323e-09
9.5632295e-11
4.0149471e-09
3.3650762e-09
4.5168402e-09
3.3824718e-09
1.9749397e-14
-8.527288e-11
4.0521e-09
3.3399565e-09
-5.1344337e-15
-1.3219206e-10
3.5649795e-09
3.2868097e-09
-8.7943434e-11
3.5126748e-09
3.1915571e-09
4.3952728e-14
3.5266236e-09
3.1518684e-09
8.8027809e-11
3.5266172e-09
3.1518723e-09
1.3226638e-10
3.5126562e-09
3.1915683e-09
8.5328615e-11
3.5649522e-09
3.2868294e-09
4.0520542e-09
3.3399873e-09
2.4115269e-14
-6.8582659e-11
3.2365538e-09
-5.9714789e-15
3.5399902e-09
-1.1539667e-10
3.1575415e-09
3.1101074e-09
-7.825084e-11
3.0714133e-09
3.059971e-09
4.4319543e-14
3.0368801e-09
3.0673038e-09
7.8336563e-11
3.0368835e-09
3.0672968e-09
1.1547392e-10
3.0714228e-09
3.0599515e-09
6.8642393e-11
3.157558e-09
3.1100811e-09
3.236581e-09
2.8142065e-14
3.5399428e-09
4.4196873e-11
4.335025e-10
4.1968823e-10
-2.7808547e-16
3.7199624e-11
4.5522898e-10
5.3642871e-10
1.8669254e-11
4.3688546e-10
5.3114438e-10
2.2142526e-14
4.3213893e-10
5.1517194e-10
-1.8627561e-11
4.3213792e-10
5.1517752e-10
-3.7166375e-11
4.3688244e-10
5.3116188e-10
-4.4179454e-11
4.5522717e-10
5.3645608e-10
4.3350271e-10
4.1971463e-10
1.0168748e-15
8.9218002e-11
1.146119e-09
1.2117595e-09
-1.6599034e-15
7.1817168e-11
1.1688924e-09
1.4559943e-09
3.3727845e-11
1.1219263e-09
1.4304064e-09
5.4349186e-14
1.1113436e-09
1.3904163e-09
-3.3625508e-11
1.1113406e-09
1.3904288e-09
-7.1734672e-11
1.1219164e-09
1.4304458e-09
-8.9172151e-11
1.168884e-09
1.4560586e-09
1.1461131e-09
1.2118271e-09
7.1762538e-15
1.0803948e-10
1.855156e-09
1.8873349e-09
-3.4505586e-15
8.1756119e-11
1.8475524e-09
2.1757288e-09
3.5926503e-11
1.7715288e-09
2.1277425e-09
7.6773957e-14
1.7565522e-09
2.0721853e-09
-3.5781439e-11
1.7565469e-09
2.0722012e-09
-8.1637112e-11
1.7715098e-09
2.127793e-09
-1.0796941e-10
1.8475339e-09
2.175814e-09
1.8551379e-09
1.8874303e-09
1.585192e-14
1.101926e-10
2.4375894e-09
2.4214619e-09
-5.5229849e-15
7.7711849e-11
2.3778164e-09
2.6961069e-09
3.1504222e-11
2.2774214e-09
2.6278977e-09
9.2013343e-14
2.2599648e-09
2.5639865e-09
-3.1329666e-11
2.2599572e-09
2.5640035e-09
-7.7566194e-11
2.2773932e-09
2.6279516e-09
-1.1010184e-10
2.3777863e-09
2.6962005e-09
2.4375549e-09
2.4215734e-09
2.5861283e-14
1.0288707e-10
2.8445739e-09
2.8114407e-09
-7.7816971e-15
6.7583031e-11
2.7249448e-09
3.0382612e-09
2.4665705e-11
2.6084309e-09
2.9543845e-09
1.0213123e-13
2.5900673e-09
2.8876752e-09
-2.4471103e-11
2.5900578e-09
2.8876916e-09
-6.7417984e-11
2.6083944e-09
2.9544368e-09
-1.0277853e-10
2.7249033e-09
3.0383548e-09
2.8445217e-09
2.8115585e-09
3.651787e-14
9.0969827e-11
3.0718023e-09
3.0642498e-09
-1.0153311e-14
5.5638329e-11
2.896599e-09
3.2287306e-09
1.7573054e-11
2.7735924e-09
3.1347232e-09
1.0870853e-13
2.7552632e-09
3.0691853e-09
-1.7364897e-11
2.7552523e-09
3.0692004e-09
-5.5459093e-11
2.7735495e-09
3.1347714e-09
-9.0845818e-11
2.8965478e-09
3.2288184e-09
3.0717335e-09
3.0643667e-09
4.7448146e-14
7.7249461e-11
3.1409384e-09
3.1935835e-09
-1.2596397e-14
4.3723793e-11
2.9210461e-09
3.2958883e-09
1.113281e-11
2.8006797e-09
3.1970607e-09
1.1288443e-13
2.7828486e-09
3.1353029e-09
-1.0915329e-11
2.7828364e-09
3.1353164e-09
-4.353403e-11
2.8006331e-09
3.1971034e-09
-7.7111955e-11
2.9209879e-09
3.2959673e-09
3.140856e-09
3.1936945e-09
5.8441769e-14
6.3439042e-11
3.20923e-09
-1.4907964e-14
3.1048382e-09
3.2814643e-11
3.2618793e-09
2.8473327e-09
5.7171934e-12
3.1628565e-09
2.736334e-09
1.1536771e-13
3.1066076e-09
2.7187229e-09
-5.4916493e-12
3.1066193e-09
2.7187077e-09
-3.2616506e-11
3.1628934e-09
2.7362874e-09
-6.3288808e-11
3.261948e-09
2.8472701e-09
3.2093319e-09
6.8628469e-14
3.1047477e-09
3.673818e-11
9.7229152e-11
2.8572115e-10
-2.4732735e-16
3.797729e-11
1.2644463e-10
4.0874497e-10
2.0511664e-11
1.2104431e-10
4.275657e-10
3.1821778e-14
1.163569e-10
4.1929488e-10
-2.0451642e-11
1.1635497e-10
4.1930602e-10
-3.7930275e-11
1.2104032e-10
4.2760019e-10
-3.671472e-11
1.2644313e-10
4.087974e-10
9.722945e-11
2.8576952e-10
9.4456904e-16
8.414607e-11
3.7603679e-10
8.488079e-10
-2.0875055e-15
8.8967002e-11
4.4237997e-10
1.135238e-09
4.7849537e-11
4.2184228e-10
1.1707259e-09
8.0643877e-14
4.0649017e-10
1.1480519e-09
-4.7697603e-11
4.0648479e-10
1.1480772e-09
-8.8846304e-11
4.2182956e-10
1.1708053e-09
-8.4081606e-11
4.4237345e-10
1.1353635e-09
3.7603324e-10
8.4893258e-10
9.10188e-15
1.1504622e-10
7.7008539e-10
1.3782449e-09
-4.8355632e-15
1.2025781e-10
8.5974571e-10
1.7531515e-09
6.3939469e-11
8.176617e-10
1.7882415e-09
1.1667311e-13
7.8910195e-10
1.7533963e-09
-6.3719054e-11
7.8909255e-10
1.7534292e-09
-1.2007939e-10
8.1763713e-10
1.7883458e-09
-1.1494472e-10
8.5973057e-10
1.7533222e-09
7.7007264e-10
1.3784246e-09
2.1662931e-14
1.3169412e-10
1.2054462e-09
1.8544153e-09
-8.2695006e-15
1.3453324e-10
1.2952579e-09
2.2577556e-09
7.0620736e-11
1.228237e-09
2.2812349e-09
1.4258348e-13
1.1867236e-09
2.2368431e-09
-7.0350406e-11
1.1867102e-09
2.2368788e-09
-1.3431045e-10
1.2281993e-09
2.2813495e-09
-1.3155952e-10
1.2952307e-09
2.2579495e-09
1.2054188e-09
1.8546309e-09
3.6792115e-14
1.374323e-10
1.6220445e-09
2.2574222e-09
-1.2172434e-14
1.3634202e-10
1.6894386e-09
2.6451709e-09
7.0615462e-11
1.5970139e-09
2.6513342e-09
1.6073117e-13
1.5444952e-09
2.6003583e-09
-7.0309549e-11
1.5444783e-09
2.6003937e-09
-1.3608552e-10
1.5969631e-09
2.6514489e-09
-1.3726837e-10
1.6893969e-09
2.6453714e-09
1.6219984e-09
2.2576573e-09
5.3256241e-14
1.3450631e-10
1.9783833e-09
2.573421e-09
-1.6356563e-14
1.2918929e-10
2.0057562e-09
2.9177299e-09
6.6084105e-11
1.8897686e-09
2.9050736e-09
1.7310136e-13
1.8291374e-09
2.8504541e-09
-6.5753352e-11
1.8291177e-09
2.8504875e-09
-1.2890733e-10
1.8897064e-09
2.905182e-09
-1.343165e-10
2.0056995e-09
2.917925e-09
1.9783163e-09
2.5736619e-09
7.0269649e-14
1.2420577e-10
2.2525271e-09
2.7952546e-09
-2.0694645e-14
1.1574043e-10
2.2265419e-09
3.0835679e-09
5.8691668e-11
2.0907345e-09
3.0531436e-09
1.8125893e-13
2.0254317e-09
2.997519e-09
-5.8343981e-11
2.0254101e-09
2.9975492e-09
-1.154393e-10
2.0906634e-09
3.0532418e-09
-1.2399325e-10
2.2264713e-09
3.0837494e-09
2.2524395e-09
2.7954907e-09
8.7353455e-14
1.0886339e-10
2.9239531e-09
-2.4851722e-14
2.4289654e-09
9.9182337e-11
3.1569524e-09
2.3411499e-09
5.0216966e-11
3.1103288e-09
2.1922277e-09
1.8624539e-13
3.0559174e-09
2.1261526e-09
-4.9858083e-11
3.0559441e-09
2.1261297e-09
-9.8867081e-11
3.110415e-09
2.1921507e-09
-1.0862915e-10
3.157115e-09
2.3410664e-09
2.9241765e-09
1.0320843e-13
2.4288625e-09
1.7139381e-11
4.0999624e-11
2.2758231e-10
-1.5877763e-16
2.1847737e-11
5.6544483e-11
3.4749213e-10
1.3107985e-11
5.4051425e-11
3.8225403e-10
4.408225e-14
4.9151029e-11
3.8320776e-10
-1.3025251e-11
4.9148756e-11
3.832266e-10
-2.1784442e-11
5.4048027e-11
3.8231135e-10
-1.7109391e-11
5.6545981e-11
3.4757637e-10
4.1002442e-11
2.2765695e-10
7.3619604e-16
4.7796408e-11
1.5378981e-10
6.8822353e-10
-2.2273096e-15
6.0204311e-11
2.0168104e-10
9.7769355e-10
3.5833663e-11
1.9274666e-10
1.0564013e-09
1.1313762e-13
1.7689734e-10
1.0560261e-09
-3.5621493e-11
1.7689095e-10
1.0560697e-09
-6.0039031e-11
1.9273502e-10
1.0565358e-09
-4.7711666e-11
2.0168327e-10
9.7789889e-10
1.5379321e-10
6.8841921e-10
1.0935337e-14
7.3187077e-11
3.3108777e-10
1.1277656e-09
-5.7242629e-15
9.0649507e-11
4.1373205e-10
1.5236381e-09
5.3626895e-11
3.9377338e-10
1.6242373e-09
1.6535764e-13
3.6380258e-10
1.6199526e-09
-5.3315865e-11
3.6379131e-10
1.62001e-09
-9.0402119e-11
3.9374963e-10
1.6244174e-09
-7.3050959e-11
4.137321e-10
1.5239222e-09
3.3108705e-10
1.1280519e-09
2.7907467e-14
9.3090495e-11
5.5874692e-10
1.533676e-09
-1.0394149e-14
1.1261361e-10
6.676695e-10
1.984295e-09
6.6177395e-11
6.3186652e-10
2.089578e-09
2.0387572e-13
5.8689033e-10
2.0797289e-09
-6.5792458e-11
5.8687411e-10
2.0797923e-09
-1.1230142e-10
6.3182828e-10
2.0897798e-09
-9.2907075e-11
6.6766305e-10
1.9846242e-09
5.5873657e-10
1.5340253e-09
4.9044827e-14
1.07068e-10
8.1430777e-10
1.8948093e-09
-1.5932751e-14
1.261356e-10
9.3440632e-10
2.3593664e-09
7.3665053e-11
8.7894566e-10
2.4567256e-09
2.3152292e-13
8.2005002e-10
2.4406321e-09
-7.3226128e-11
8.200293e-10
2.4406962e-09
-1.25773e-10
8.7889211e-10
2.456932e-09
-1.0684182e-10
9.3438898e-10
2.3597143e-09
8.1428249e-10
1.8951972e-09
7.2450818e-14
1.14871e-10
1.072203e-09
2.2006769e-09
-2.2033247e-14
1.3168895e-10
1.185885e-09
2.6494333e-09
7.6589947e-11
1.1086727e-09
2.7304456e-09
2.5078146e-13
1.0385408e-09
2.7083026e-09
-7.6112517e-11
1.0385163e-09
2.7083638e-09
-1.3128757e-10
1.1086045e-09
2.7306447e-09
-1.1460665e-10
1.1858534e-09
2.6497797e-09
1.0721586e-09
2.2010824e-09
9.680591e-14
1.1635031e-10
1.3085253e-09
2.4426104e-09
-2.8459207e-14
1.3027081e-10
1.3982321e-09
2.8573003e-09
7.5723902e-11
1.2995849e-09
2.9167783e-09
2.6370318e-13
1.2220789e-09
2.8894411e-09
-7.5219773e-11
1.2220517e-09
2.8894972e-09
-1.2983983e-10
1.2995041e-09
2.9169623e-09
-1.160523e-10
1.3981849e-09
2.8576304e-09
1.3084594e-09
2.4430164e-09
1.2125061e-13
1.1193944e-10
2.6141598e-09
-3.471031e-14
1.5064139e-09
1.2358294e-10
2.9885065e-09
1.5550344e-09
7.2092822e-11
3.0229984e-09
1.4384053e-09
2.7172028e-13
2.9918301e-09
1.3579873e-09
-7.1570859e-11
2.9918802e-09
1.3579582e-09
-1.2312977e-10
3.0231629e-09
1.4383151e-09
-1.1160936e-10
2.9888095e-09
1.55497e-09
2.6145525e-09
1.438237e-13
1.5063302e-09
1.0722799e-11
2.1279103e-11
1.9558046e-10
-4.956815e-17
1.3903145e-11
3.3630641e-11
3.1068114e-10
8.5042581e-12
3.236879e-11
3.5528413e-10
6.1345926e-14
2.7678697e-11
3.6397197e-10
-8.3901013e-12
2.7676283e-11
3.6400177e-10
-1.3817564e-11
3.2365822e-11
3.55373e-10
-1.0683839e-11
3.3634588e-11
3.1080806e-10
2.1282667e-11
1.9569002e-10
4.2965987e-16
2.9198884e-11
8.6692373e-11
5.9361353e-10
-2.148585e-15
3.8895492e-11
1.2284459e-10
8.7878299e-10
2.4240193e-11
1.173549e-10
9.8607049e-10
1.581106e-13
1.0211593e-10
1.005671e-09
-2.3945599e-11
1.0210887e-10
1.0057408e-09
-3.8670006e-11
1.1734402e-10
9.8628201e-10
-2.9086797e-11
1.228541e-10
8.7909617e-10
8.6697723e-11
5.9390379e-10
1.357156e-14
4.5272802e-11
1.9095869e-10
9.7823253e-10
-6.0731501e-15
6.0430221e-11
2.5366201e-10
1.3776632e-09
3.7987419e-11
2.4069235e-10
1.5233427e-09
2.3191008e-13
2.1192831e-10
1.5478957e-09
-3.755361e-11
2.1191544e-10
1.547989e-09
-6.0090554e-11
2.4066885e-10
1.5236295e-09
-4.5090653e-11
2.536751e-10
1.3781013e-09
1.9096134e-10
9.7866097e-10
3.6628647e-14
5.9078937e-11
3.2609435e-10
1.3394731e-09
-1.1646272e-14
7.8163491e-11
4.1200394e-10
1.8068685e-09
4.9324433e-11
3.8819264e-10
1.9709167e-09
2.868544e-13
3.4507412e-10
1.9956206e-09
-4.8785541e-11
3.4505514e-10
1.995725e-09
-7.7732577e-11
3.8815313e-10
1.9712426e-09
-5.8831172e-11
4.1201601e-10
1.8073819e-09
3.2608887e-10
1.3400005e-09
6.6074771e-14
7.0475272e-11
4.822753e-10
1.6681716e-09
-1.8551163e-14
9.1839891e-11
5.8359423e-10
2.1664115e-09
5.8038339e-11
5.4585688e-10
2.3328629e-09
3.2664318e-13
4.892621e-10
2.3541558e-09
-5.7421982e-11
4.892374e-10
2.3542626e-09
-9.1337272e-11
5.4579961e-10
2.3332008e-09
-7.0167464e-11
5.835997e-10
2.1669608e-09
4.8225631e-10
1.6687631e-09
9.91697e-14
7.9059367e-11
6.4776152e-10
1.9561577e-09
-2.6413381e-14
1.0118627e-10
7.5374442e-10
2.4571562e-09
6.4021428e-11
6.9978219e-10
2.6136852e-09
3.5454053e-13
6.3201933e-10
2.6292122e-09
-6.3349446e-11
6.3198974e-10
2.6293154e-09
-1.0062813e-10
6.9970714e-10
2.6140158e-09
-7.8697591e-11
7.5373809e-10
2.4577108e-09
6.4772436e-10
1.9567829e-09
1.3389039e-13
8.4323944e-11
8.0962228e-10
2.1964606e-09
-3.491044e-14
1.0624308e-10
9.0785802e-10
2.6812676e-09
6.7376592e-11
8.3696313e-10
2.8184639e-09
3.7328967e-13
7.6148678e-10
2.8269769e-09
-6.666594e-11
7.6145345e-10
2.8270728e-09
-1.0564248e-10
8.3687184e-10
2.8187742e-09
-8.3914556e-11
9.0783651e-10
2.681804e-09
8.0956337e-10
2.197094e-09
1.6882356e-13
8.5945673e-11
2.3836409e-09
-4.3386869e-14
9.5423888e-10
1.074201e-10
2.842703e-09
1.0321871e-09
6.8384216e-11
2.9528809e-09
9.4611653e-10
3.8485058e-13
2.9541694e-09
8.6714685e-10
-6.7647819e-11
2.9542558e-09
8.6711052e-10
-1.0678774e-10
2.9531625e-09
9.4601218e-10
-8.5491527e-11
2.8432035e-09
1.0321462e-09
2.3842615e-09
2.0102034e-13
9.5416187e-10
6.2613843e-12
1.3049807e-11
1.7626917e-10
9.5896121e-17
8.2639957e-12
2.1768432e-11
2.869101e-10
5.1168355e-12
2.1066219e-11
3.3736507e-10
8.555518e-14
1.7131229e-11
3.5187203e-10
-4.9593653e-12
1.7129194e-11
3.519175e-10
-8.1483783e-12
2.1063866e-11
3.3749815e-10
-6.2106431e-12
2.1774587e-11
2.8709574e-10
1.3053234e-11
1.7642629e-10
-1.469401e-16
1.7399354e-11
5.2254681e-11
5.3701103e-10
-1.7276196e-15
2.3942529e-11
7.9159985e-11
8.1484827e-10
1.5383582e-11
7.6134632e-11
9.3956103e-10
2.2082126e-13
6.3380505e-11
9.7458449e-10
-1.497528e-11
6.3374082e-11
9.74692e-10
-2.3635645e-11
7.612576e-11
9.3988048e-10
-1.7251214e-11
7.9176902e-11
8.1530942e-10
5.2259186e-11
5.3742944e-10
1.7183509e-14
2.7314912e-11
1.1547922e-10
8.8769859e-10
-5.5117445e-15
3.8152576e-11
1.6375931e-10
1.2822262e-09
2.5041569e-11
1.5630625e-10
1.4562821e-09
3.2428809e-13
1.3222945e-10
1.5037641e-09
-2.4438629e-11
1.3221692e-10
1.5039091e-09
-3.7687985e-11
1.5628574e-10
1.4567189e-09
-2.7071905e-11
1.6378664e-10
1.2828755e-09
1.1548034e-10
8.8831929e-10
4.8618565e-14
3.6224138e-11
1.9888047e-10
1.219859e-09
-1.1339697e-14
5.0735404e-11
2.6711465e-10
1.6890019e-09
3.3748854e-11
2.5284353e-10
1.891366e-09
4.0154262e-13
2.1669579e-10
1.9445016e-09
-3.2998424e-11
2.1667641e-10
1.9446655e-09
-5.014361e-11
2.5280676e-10
1.8918667e-09
-3.5891016e-11
2.6714778e-10
1.6897682e-09
1.9887291e-10
1.2206274e-09
8.9557493e-14
4.4136629e-11
2.9706521e-10
1.5258693e-09
-1.8997359e-14
6.153384e-11
3.8057863e-10
2.0355503e-09
4.1283934e-11
3.5719113e-10
2.2487652e-09
4.5759442e-13
3.0962891e-10
2.302049e-09
-4.0424461e-11
3.096027e-10
2.3022183e-09
-6.0841387e-11
3.5713487e-10
2.2492896e-09
-4.3720178e-11
3.8061074e-10
2.0363766e-09
2.9704359e-10
1.5267361e-09
1.3614525e-13
5.0876319e-11
4.0345105e-10
1.7989237e-09
-2.8127615e-14
7.0300794e-11
4.954506e-10
2.3228598e-09
4.7448425e-11
4.6108814e-10
2.5326405e-09
4.9687864e-13
4.0392691e-10
2.5818658e-09
-4.65106e-11
4.038945e-10
2.5820311e-09
-6.9530133e-11
4.6101108e-10
2.5331592e-09
-5.0384516e-11
4.9547457e-10
2.3237013e-09
4.0341055e-10
1.7998459e-09
1.8543143e-13
5.6118075e-11
5.1068423e-10
2.0331478e-09
-3.8380224e-14
7.6889321e-11
6.0310245e-10
2.5528445e-09
5.213192e-11
5.5686634e-10
2.7474431e-09
5.2314992e-13
4.9284383e-10
2.7896688e-09
-5.1139809e-11
4.9280631e-10
2.7898239e-09
-7.6058895e-11
5.5676906e-10
2.7479353e-09
-5.5559697e-11
6.0311287e-10
2.5536665e-09
5.1062068e-10
2.0340889e-09
2.3525781e-13
5.9430578e-11
2.2236776e-09
-4.9018639e-14
6.1126596e-10
8.1230727e-11
2.7286404e-09
6.9536494e-10
5.5285748e-11
2.8978501e-09
6.3784213e-10
5.391337e-13
2.9314092e-09
5.7035064e-10
-5.4257792e-11
2.9315504e-09
5.7030859e-10
-8.0355709e-11
2.8983021e-09
6.3772733e-10
-5.8809798e-11
2.729416e-09
6.9535452e-10
2.2246072e-09
2.8134033e-13
6.1118388e-10
3.9600289e-12
8.0806258e-12
1.6422819e-10
3.3152011e-16
5.1037381e-12
1.4531681e-11
2.7123472e-10
3.1260784e-12
1.4346633e-11
3.249961e-10
1.1984334e-13
1.135822e-11
3.4352004e-10
-2.9081616e-12
1.1357267e-11
3.4358824e-10
-4.9467703e-12
1.4344549e-11
3.2519221e-10
-3.8933223e-12
1.4539245e-11
2.7150305e-10
8.0825661e-12
1.6445134e-10
-9.2838176e-16
1.0880132e-11
3.2942738e-11
5.0126916e-10
-3.7607064e-16
1.4963099e-11
5.2981619e-11
7.7231536e-10
9.735306e-12
5.1800656e-11
9.073348e-10
3.0928846e-13
4.2076698e-11
9.5329203e-10
-9.1680279e-12
4.2072152e-11
9.5345443e-10
-1.4544331e-11
5.1792809e-11
9.0780853e-10
-1.0683495e-11
5.3002528e-11
7.7298531e-10
3.29403e-11
5.0186604e-10
2.2181786e-14
1.7034123e-11
7.3394668e-11
8.3021512e-10
-2.5870287e-15
2.414061e-11
1.0979637e-10
1.218305e-09
1.6268691e-11
1.063137e-10
1.409641e-09
4.5419321e-13
8.7909882e-11
1.4737454e-09
-1.5429456e-11
8.7899008e-11
1.4739659e-09
-2.3504474e-11
1.0629436e-10
1.4102924e-09
-1.6709649e-11
1.09831e-10
1.2192522e-09
7.3381091e-11
8.3110372e-10
6.5141267e-14
2.2646695e-11
1.2713858e-10
1.1434755e-09
-7.0343682e-15
3.2612688e-11
1.7947671e-10
1.6093556e-09
2.2503052e-11
1.7210677e-10
1.8356826e-09
5.6232602e-13
1.4442149e-10
1.9099307e-09
-2.1457586e-11
1.4440275e-10
1.9101817e-09
-3.1800123e-11
1.7206991e-10
1.8364337e-09
-2.2199624e-11
1.7952039e-10
1.6104783e-09
1.2710771e-10
1.1445792e-09
1.2190264e-13
2.7817559e-11
1.9097448e-10
1.4342297e-09
-1.3837168e-14
4.0344312e-11
2.565326e-10
1.9459677e-09
2.8291245e-11
2.4367643e-10
2.1892487e-09
6.4061813e-13
2.0718006e-10
2.2669411e-09
-2.7093389e-11
2.0715288e-10
2.2672022e-09
-3.9391445e-11
2.4361725e-10
2.1900403e-09
-2.7256179e-11
2.5657773e-10
1.947184e-09
1.9092112e-10
1.4354794e-09
1.8711041e-13
3.2512728e-11
2.6099883e-10
1.6964094e-09
-2.2841361e-14
4.7203671e-11
3.3555937e-10
2.2291421e-09
3.3474532e-11
3.1583711e-10
2.474209e-09
6.9522104e-13
2.7187556e-10
2.5499496e-09
-3.2167507e-11
2.718402e-10
2.5502065e-09
-4.6141524e-11
3.1575291e-10
2.4749975e-09
-3.184734e-11
3.3559764e-10
2.2303872e-09
2.6091892e-10
1.6977442e-09
2.5658156e-13
3.6566805e-11
3.3287778e-10
1.9247358e-09
-3.3809981e-14
5.3067842e-11
4.1129914e-10
2.4606037e-09
3.7916661e-11
3.8387511e-10
2.6945562e-09
7.3136517e-13
3.3448288e-10
2.7642468e-09
-3.6534558e-11
3.3444029e-10
2.7644897e-09
-5.1922265e-11
3.8376554e-10
2.6953104e-09
-3.5809192e-11
4.1132401e-10
2.4618271e-09
3.3276797e-10
1.9261035e-09
3.2717062e-13
3.9634549e-11
2.1147307e-09
-4.6135486e-14
4.0223629e-10
5.7778575e-11
2.6430326e-09
4.7876294e-10
4.1482267e-11
2.8543303e-09
4.4369127e-10
7.5290044e-13
2.9152146e-09
3.9140692e-10
-4.005131e-11
2.9154375e-09
3.9135746e-10
-5.6570954e-11
2.8550286e-09
4.4355871e-10
-3.8790784e-11
2.6441946e-09
4.7876518e-10
2.1160875e-09
3.9279262e-13
4.0210409e-10
2.6116497e-12
5.2230189e-12
1.5639311e-10
4.1370703e-16
3.3093007e-12
9.9314645e-12
2.606056e-10
2.0184409e-12
1.0122173e-11
3.1616479e-10
1.6844488e-13
8.0234281e-12
3.3734661e-10
-1.7158638e-12
8.0240078e-12
3.3744854e-10
-3.0955954e-12
1.0118534e-11
3.1645341e-10
-2.52374e-12
9.9372113e-12
2.6099398e-10
5.2190843e-12
1.5671053e-10
-2.0119803e-15
7.1121966e-12
2.1471382e-11
4.779053e-10
3.3083384e-15
9.724638e-12
3.6369082e-11
7.4326531e-10
6.4006992e-12
3.6614458e-11
8.8416646e-10
4.3443518e-13
2.9769532e-11
9.3751219e-10
-5.6104537e-12
2.9767261e-11
9.3775607e-10
-9.1524818e-12
3.6602615e-11
8.8486648e-10
-6.8514475e-12
3.6383263e-11
7.4423822e-10
2.1447466e-11
4.7875723e-10
2.8977344e-14
1.1071854e-11
4.817214e-11
7.9243626e-10
6.2608108e-15
1.5743465e-11
7.5673014e-11
1.1743295e-09
1.083897e-11
7.5290172e-11
1.3758698e-09
6.376328e-13
6.2295177e-11
1.4514211e-09
-9.6684224e-12
6.2285599e-11
1.4517536e-09
-1.4872239e-11
7.5263152e-11
1.3768357e-09
-1.0640064e-11
7.5694703e-11
1.1757086e-09
4.8115715e-11
7.9370775e-10
8.7655777e-14
1.4677585e-11
8.4006855e-11
1.0929557e-09
7.4368241e-15
2.1405182e-11
1.2421929e-10
1.5540817e-09
1.5203525e-11
1.2218118e-10
1.7949932e-09
7.8893809e-13
1.0256502e-10
1.8840755e-09
-1.3744771e-11
1.0254536e-10
1.8844556e-09
-2.0290118e-11
1.2213127e-10
1.796111e-09
-1.408077e-11
1.242433e-10
1.5557203e-09
8.3909503e-11
1.0945386e-09
1.6602769e-13
1.8041248e-11
1.2703144e-10
1.3731581e-09
5.7378428e-15
2.6739207e-11
1.7838728e-10
1.8831018e-09
1.9416551e-11
1.7354656e-10
2.1452059e-09
8.9803713e-13
1.47597e-10
2.2404276e-09
-1.7745302e-11
1.4756587e-10
2.2408251e-09
-2.5429536e-11
1.7346741e-10
2.1463884e-09
-1.7289611e-11
1.7840604e-10
1.8848813e-09
1.2688852e-10
1.3749541e-09
2.5671158e-13
2.1187423e-11
1.748184e-10
1.6274343e-09
8.0122129e-16
3.16973e-11
2.3462755e-10
2.1623919e-09
2.3379888e-11
2.2589729e-10
2.4301757e-09
9.7355199e-13
1.9453123e-10
2.5254217e-09
-2.1557171e-11
1.9448845e-10
2.5258146e-09
-3.0235754e-11
2.2578524e-10
2.4313583e-09
-2.0294105e-11
2.346332e-10
2.1642184e-09
1.7462852e-10
1.6293563e-09
3.5387235e-13
2.4042138e-11
2.2464565e-10
1.8508748e-09
-8.384319e-15
3.6213673e-11
2.8949954e-10
2.3935602e-09
2.6992204e-11
2.7608141e-10
2.6535936e-09
1.02284e-12
2.4071847e-10
2.7440289e-09
-2.5066344e-11
2.4066493e-10
2.7444025e-09
-3.4636232e-11
2.7593577e-10
2.6547297e-09
-2.3022553e-11
2.8948666e-10
2.39536e-09
2.2440837e-10
1.8528481e-09
4.5304382e-13
2.6357555e-11
2.0392556e-09
-2.1069174e-14
2.7378432e-10
4.0163869e-11
2.5790323e-09
3.3969349e-10
3.0131282e-11
2.8191111e-09
3.213332e-10
1.0513987e-12
2.9012408e-09
2.8377208e-10
-2.8139585e-11
2.9015854e-09
2.8370802e-10
-3.850041e-11
2.8201685e-09
3.2115668e-10
-2.5220238e-11
2.5807479e-09
3.3965326e-10
2.041217e-09
5.4570895e-13
2.7351287e-10
1.8487985e-12
3.5516013e-12
1.5099111e-10
1.6032732e-15
2.3554544e-12
7.043541e-12
2.5305541e-10
1.4725028e-12
7.495497e-12
3.0955224e-10
2.3829902e-13
6.1156491e-12
3.3246517e-10
-1.0491137e-12
6.1173086e-12
3.3261865e-10
-2.0632361e-12
7.4859882e-12
3.0998154e-10
-1.7332831e-12
7.0394189e-12
2.5362461e-10
3.5328794e-12
1.5144825e-10
-3.8890663e-15
4.9763433e-12
1.4692933e-11
4.6177336e-10
1.4269818e-14
6.8252203e-12
2.5907987e-11
7.2255199e-10
4.6093984e-12
2.7131318e-11
8.6674646e-10
6.1396339e-13
2.2623895e-11
9.2499938e-10
-3.5018324e-12
2.2621158e-11
9.2536802e-10
-6.0415255e-12
2.7100985e-11
8.6779117e-10
-4.6327518e-12
2.5886595e-11
7.2398227e-10
1.4614251e-11
4.6300512e-10
3.7985538e-14
7.6758363e-12
3.3118251e-11
7.6630332e-10
3.1787791e-14
1.0958353e-11
5.4114639e-11
1.1428403e-09
7.7542954e-12
5.5864708e-11
1.3503404e-09
9.0029561e-13
4.7279635e-11
1.4336193e-09
-6.1131121e-12
4.7264842e-11
1.4341233e-09
-9.7634887e-12
5.5802118e-11
1.3517849e-09
-7.1062828e-12
5.4067061e-11
1.1448709e-09
3.2952245e-11
7.6814553e-10
1.1794076e-13
1.0093135e-11
5.8021106e-11
1.0579105e-09
4.9228262e-14
1.4825588e-11
8.9187288e-11
1.5142766e-09
1.084657e-11
9.083824e-11
1.7639987e-09
1.112731e-12
7.7824615e-11
1.8632643e-09
-8.8018081e-12
7.7793113e-11
1.8638419e-09
-1.3294741e-11
9.0733193e-11
1.7656728e-09
-9.3050808e-12
8.910655e-11
1.5166912e-09
5.7753462e-11
1.0602066e-09
2.2568859e-13
1.2330181e-11
8.8168065e-11
1.3306178e-09
6.3105951e-14
1.8489585e-11
1.286447e-10
1.8374849e-09
1.3862726e-11
1.293701e-10
2.1113009e-09
1.2649533e-12
1.1207693e-10
2.2187731e-09
-1.1521638e-11
1.120265e-10
2.2193783e-09
-1.6690178e-11
1.2921572e-10
2.1130745e-09
-1.1336297e-11
1.285258e-10
1.8401082e-09
8.779553e-11
1.3332246e-09
3.5110047e-13
1.4431939e-11
1.2198674e-10
1.5791125e-09
7.1200806e-14
2.1954709e-11
1.7004399e-10
2.1134699e-09
1.6758418e-11
1.689621e-10
2.39578e-09
1.3691881e-12
1.4796544e-10
2.5049224e-09
-1.4207721e-11
1.4789595e-10
2.5055221e-09
-1.9945659e-11
1.6875592e-10
2.397556e-09
-1.324873e-11
1.6988456e-10
2.1161627e-09
1.2151438e-10
1.5819026e-09
4.8611468e-13
1.637252e-11
1.5768566e-10
1.7987312e-09
7.2178615e-14
2.5203227e-11
2.109977e-10
2.3437757e-09
1.9477343e-11
2.073459e-10
2.6209357e-09
1.4359026e-12
1.8357561e-10
2.7264602e-09
-1.678588e-11
1.8348861e-10
2.7270316e-09
-2.303447e-11
2.0708971e-10
2.6226445e-09
-1.501963e-11
2.1079994e-10
2.3464297e-09
1.5712302e-10
1.8015953e-09
6.2449101e-13
1.7979512e-11
1.9854336e-09
6.4447982e-14
1.9346366e-10
2.8160663e-11
2.530687e-09
2.4916188e-10
2.1935668e-11
2.7901774e-09
2.4250452e-10
1.473052e-12
2.8881086e-09
2.1717041e-10
-1.9156722e-11
2.8886368e-09
2.1706692e-10
-2.5873554e-11
2.7917706e-09
2.4220442e-10
-1.6468009e-11
2.5332176e-09
2.4892462e-10
1.9882793e-09
7.5439387e-13
1.9283837e-10
1.4081168e-12
2.586195e-12
1.4699158e-10
5.2185802e-15
1.8734614e-12
5.2147584e-12
2.473753e-10
1.2574055e-12
5.8090834e-12
3.0435922e-10
3.3975248e-13
4.9562211e-12
3.284266e-10
-6.5906759e-13
4.9558114e-12
3.2866166e-10
-1.4721654e-12
5.78197e-12
3.0501267e-10
-1.2571785e-12
5.1770645e-12
2.4823256e-10
2.5283339e-12
1.4766995e-10
-7.2120572e-15
3.7542747e-12
1.0694798e-11
4.4986722e-10
4.3264552e-14
5.2934323e-12
1.9259328e-11
7.0696826e-10
3.7785814e-12
2.1033432e-11
8.5303696e-10
8.7448822e-13
1.825291e-11
9.1460679e-10
-2.2137751e-12
1.8239819e-11
9.1517227e-10
-4.21677e-12
2.0948177e-11
8.5462796e-10
-3.3062529e-12
1.9127392e-11
7.0912143e-10
1.0477469e-11
4.5170069e-10
4.9046497e-14
5.735462e-12
2.4113275e-11
7.4705169e-10
9.7686867e-14
8.3531033e-12
4.0353153e-11
1.1191288e-09
6.1950212e-12
4.3344767e-11
1.3301872e-09
1.2809393e-12
3.8036853e-11
1.4187495e-09
-3.8775126e-12
3.7998264e-11
1.4195233e-09
-6.7110414e-12
4.3179182e-11
1.3323874e-09
-4.9945017e-12
4.010001e-11
1.1221818e-09
2.3677366e-11
7.4979404e-10
1.5709676e-13
7.461418e-12
4.2288124e-11
1.0321179e-09
1.5637906e-13
1.1135607e-11
6.6710009e-11
1.4842456e-09
8.493825e-12
7.0569004e-11
1.7394163e-09
1.5810586e-12
6.248607e-11
1.8457279e-09
-5.6088627e-12
6.2414832e-11
1.8466153e-09
-9.0316384e-12
7.0309755e-11
1.741965e-09
-6.4377559e-12
6.6327196e-11
1.4878701e-09
4.1608367e-11
1.0355338e-09
3.0412854e-13
9.0178367e-12
6.437134e-11
1.2993064e-09
2.1035395e-13
1.3717878e-11
9.6536703e-11
1.8029582e-09
1.0690597e-11
1.0067006e-10
2.0842272e-09
1.7943577e-12
8.9870073e-11
2.2002853e-09
-7.3914936e-12
8.9763632e-11
2.2012153e-09
-1.1245022e-11
1.0031298e-10
2.0869248e-09
-7.727352e-12
9.6029089e-11
1.8068887e-09
6.3450641e-11
1.3031786e-09
4.7633093e-13
1.0453209e-11
8.9278088e-11
1.5434991e-09
2.5338544e-13
1.6134923e-11
1.2806116e-10
2.0762637e-09
1.2782428e-11
1.3175086e-10
2.3680517e-09
1.9383776e-12
1.1856553e-10
2.487071e-09
-9.193462e-12
1.1842506e-10
2.4879925e-09
-1.3374692e-11
1.3130028e-10
2.3707499e-09
-8.9161098e-12
1.274436e-10
2.0802896e-09
8.8139918e-11
1.5476345e-09
6.6267837e-13
1.1765602e-11
1.1576568e-10
1.7601966e-09
2.8139566e-13
1.8402532e-11
1.5953804e-10
2.3056619e-09
1.475252e-11
1.6207986e-10
2.5942567e-09
2.028204e-12
1.4707988e-10
2.7106701e-09
-1.0972503e-11
1.4690934e-10
2.711548e-09
-1.5424208e-11
1.6154682e-10
2.5968497e-09
-1.0005933e-11
1.5883456e-10
2.3096205e-09
1.1444481e-10
1.7644299e-09
8.5455969e-13
1.2834128e-11
1.9454855e-09
2.8867529e-13
1.4259098e-10
2.0487873e-11
2.4933472e-09
1.8922407e-10
1.6555786e-11
2.7660887e-09
1.9010071e-10
2.0755072e-12
2.875612e-09
1.740568e-10
-1.2661253e-11
2.8764233e-09
1.7385962e-10
-1.7348362e-11
2.7685037e-09
1.8950084e-10
-1.0865027e-11
2.4971139e-09
1.8845495e-10
1.9496785e-09
1.0356412e-12
1.4114493e-10
1.147576e-12
2.087327e-12
1.4373381e-10
2.2875209e-14
1.6613061e-12
4.0718419e-12
2.4278973e-10
1.2485035e-12
4.6904827e-12
3.0008154e-10
4.9287422e-13
4.1888988e-12
3.2499333e-10
-3.8540944e-13
4.1775884e-12
3.2536235e-10
-1.0980523e-12
4.6104633e-12
3.0111485e-10
-9.4923403e-13
3.9259475e-12
2.4415779e-10
1.9159241e-12
1.448172e-10
-1.2401948e-14
3.0371948e-12
8.523488e-12
4.4025215e-10
1.4171179e-13
4.5637464e-12
1.5076879e-11
6.9443667e-10
3.5660656e-12
1.6981277e-11
8.4174385e-10
1.2669068e-12
1.535729e-11
9.0573756e-10
-1.3146423e-12
1.5302294e-11
9.0662912e-10
-3.0587919e-12
1.6722622e-11
8.4425996e-10
-2.4574829e-12
1.4570693e-11
6.9787538e-10
7.925978e-12
4.4316833e-10
6.4824791e-14
4.5970456e-12
1.9059111e-11
7.3161802e-10
3.0100931e-13
7.0549665e-12
3.1624621e-11
1.1001232e-09
5.6452089e-12
3.500169e-11
1.3135765e-09
1.8526967e-12
3.1901169e-11
1.4059981e-09
-2.3185651e-12
3.1778303e-11
1.4072186e-09
-4.769913e-12
3.4514951e-11
1.3170464e-09
-3.651725e-12
3.0721887e-11
1.1049124e-09
1.7890457e-11
7.3596748e-10
2.103534e-13
5.9097409e-12
3.3216401e-11
1.0115798e-09
4.7103779e-13
9.2201932e-12
5.2322472e-11
1.4602373e-09
7.5068658e-12
5.7008902e-11
1.7191224e-09
2.2819908e-12
5.2269014e-11
1.8305849e-09
-3.3756104e-12