/*--------------------------------*- C++ -*----------------------------------*\
  =========                 |
  \\      /  F ield         | OpenFOAM: The Open Source CFD Toolbox
   \\    /   O peration     | Website:  https://openfoam.org
    \\  /    A nd           | Version:  13
     \\/     M anipulation  |
\*---------------------------------------------------------------------------*/
FoamFile
{
    format      ascii;
    class       volScalarField;
    location    "0.1";
    object      rho;
}
// * * * * * * * * * * * * * * * * * * * * * * * * * * * * * * * * * * * * * //

dimensions      [1 -3 0 0 0 0 0];

internalField   nonuniform List<scalar> 
51200
(
1
1
1
1
1
1
1
1
1
1
1
1
1
1
1
1
1
1
1
1
1
1
1
1
1
1
1
1
1
1
1
1
1
1
1
1
1
1
1
1
1
1
1
1
1
1
1
1
1
1
1
1
1
1
1
1
1
1
1
1
1
1
1
1
1
1
1
1
1
1
1
1
1
1
1
1
1
1
1
1
1
1
1
1
1
1
1
1
1
1
1
1
1
1
1
1
1
1
1
1
1
1
1
1
1
1
1
1
1
1
1
1
1
1
1
1
1
1
1
1
1
1
1
1
1
1
1
1
1
1
1
1
1
1
1
1
1
1
1
1
1
1
1
1
1
1
1
1
1
1
1
1
1
1
1
1
1
1
1
1
1
1
1
1
1
1
1
1
1
1
1
1
1
1
1
1
1
1
1
1
1
1
1
1
1
1
1
1
1
1
1
1
1
1
1
1
1
1
1
1
1
1
1
1
1
1
1
1
1
1
1
1
1
1
1
1
1
1
1
1
1
1
1
1
1
1
1
1
1
1
1
1
1
1
1
1
1
1
1
1
1
1
1
1
1
1
1
1
1
1
1
1
1
1
1
1
1
1
1
1
1
1
1
1
1
1
1
1
1
1
1
1
1
1
1
1
1
1
1
1
1
1
1
1
1
1
1
1
1
1
1
1
1
1
1
1
1
1
1
1
1
1
1
1
1
1
1
1
1
1
1
1
1
1
1
1
1
1
1
1
1
1
1
1
1
1
1
1
1
1
1
1
1
1
1
1
1
1
1
1
1
1
1
1
1
1
1
1
1
1
1
1
1
1
1
1
1
1
1
1
1
1
1
1
1
1
1
1
1
1
1
1
1
1
1
1
1
1
1
1
1
1
1
1
1
1
1
1
1
1
1
1
1
1
1
1
1
1
1
1
1
1
1
1
1
1
1
1
1
1
1
1
1
1
1
1
1
1
1
1
1
1
1
1
1
1
1
1
1
1
1
1
1
1
1
1
1
1
1
1
1
1
1
1
1
1
1
1
1
1
1
1
1
1
1
1
1
1
1
1
1
1
1
1
1
1
1
1
1
1
1
1
1
1
1
1
1
1
1
1
1
1
1
1
1
1
1
1
1
1
1
1
1
1
1
1
1
1
1
1
1
1
1
1
1
1
1
1
1
1
1
1
1
1
1
1
1
1
1
1
1
1
1
1
1
1
1
1
1
1
1
1
1
1
1
1
1
1
1
1
1
1
1
1
1
1
1
1
1
1
1
1
1
1
1
1
1
1
1
1
1
1
1
1
1
1
1
1
1
1
1
1
1
1
1
1
1
1
1
1
1
1
1
1
1
1
1
1
1
1
1
1
1
1
1
1
1
1
1
1
1
1
1
1
1
1
1
1
1
1
1
1
1
1
1
1
1
1
1
1
1
1
1
1
1
1
1
1
1
1
1
1
1
1
1
1
1
1
1
1
1
1
1
1
1
1.0000001
1
1.0000005
1
1
1
1
1
1
1
1
1
1
1
1
1
1
1
1
1
1
1
1
1
1
1
1
1
1
1
1
1
1
1
1
1
1
1
1
1
1
1
1
1
1
1
1
1
1
1
1
1
1
1
1
1
1
1
1
1
1
1
1
1
1.0000002
1.0000933
1.0000017
1
1
1
1
1
1
1.0000002
1
1
1
1
1
1
1
1
1
1
1
1
1
1
1
1
1
1
1
1
1
1
1
1
1
1
1
1
1
1
1
1
1
1
1
1
1
1
1
1
1
1
1
1
1
1
1
1
1
1.0000114
1
1
1
1.0000009
1
1.000321
1
1.0000002
1
1
1
1
1
1.0000017
1
1
1
1
1
1
1
1
1
1
1
1
1
1
1
1
1
1
1
1
1
1
1
1
1
1
1
1
1
1
1
1
1
1
1
1
1
1
1
1
1
1
1
1
1
1
1
1
1
1.0003768
1.0000383
1
1
1.0000114
1.0019397
1.0003502
1.0003564
1.0000001
1.0000001
1
1
1.0000001
1.0000014
1.0000014
1.0000001
1
1
1
1
1
1
1
1
1
1
1
1
1
1
1
1
1
1
1
1
1
1
1
1
1
1
1
1
1
1
1
1
1
1
1
1
1
1
1
1
1
1
1
1
1
1
1
1
1.0004874
1.0002154
1.0000008
1.0000156
1.0000001
1.0055567
1.0002347
1.000655
1.0000001
1.0000013
1
1
1.0000001
1.0000885
1.0000017
1.000002
1
1
1
1
1
1
1
1
1
1
1
1
1
1
1
1
1
1
1
1
1
1
1
1
1
1
1
1
1
1
1
1
1
1
1
1
1
1
1
1
1
1
1
1
1
1
1
1
1.0030411
1.0001476
1
1.000191
1.0016628
1.0057745
1.0000332
1.0005233
1
1.0000014
1.0000001
1
1
1.000236
1.0000019
1.0000093
1
1
1
1
1
1
1
1
1
1
1
1
1
1
1
1
1
1
1
1
1
1
1
1
1
1
1
1
1
1
1
1
1
1
1
1
1
1
1
1
1
1
1
1
1
1
1
1
1.0184997
1.0000764
1
1.0004526
1.0283946
1.0034004
1
1.0000423
1.0004492
1.0000054
1.0000001
1.0000029
1.0008771
1.0001775
1.0000513
1.0000172
1
1
1
1
1
1
1
1.0000002
1.0000003
1
1
1
1
1
1
1
1.0000001
1
1
1
1
1
1
1
1
1
1
1
1
1
1
1
1
1
1
1
1
1
1
1
1
1
1
1
1
1
1
1
1.0186197
1.0003388
1
1.0004306
1.0376421
1.003411
1
1
1.0051021
1.0000282
1
1.0000132
1.0027751
1.0001443
1.000081
1.0000086
1.0013908
1.0000018
1
1
1
1
1
1.0000003
1.0000104
1
1
1
1
1
1
1
1.0000009
1.0000001
1
1
1
1
1
1
1
1
1
1
1
1
1
1
1
1
1
1
1
1
1
1
1
1
1
1
1
1
1
1
1.0059555
1.0012605
1.000001
1.0001909
1.0376421
1.0058868
1.0042263
1.0117379
1.0144321
1
1
1.0000112
1.0049574
1.0002179
1
1
1.0009234
1.0000069
1
1.0000001
1
1
1
1
1
1
1
1
1
1
1
1
1.0000021
1.0000001
1
1
1
1
1
1
1.0000001
1
1
1
1
1
1
1
1
1
1
1
1
1
1
1
1
1
1
1
1
1
1
1
1.001982
1.0011993
1.0000048
1.0000016
1.0376421
1.0069243
1.0095698
1.0490322
1.0110372
1
1
1
1.0246038
1.0006193
1
1.0035265
1.000084
1.0000067
1
1.0000002
1.0006776
1
1
1
1
1
1
1
1
1
1
1
1.0000022
1.0000002
1
1
1
1
1
1
1
1
1
1
1
1
1
1
1
1
1
1
1
1
1
1
1
1
1
1
1
1
1
1
1.001894
1.0004262
1.0000008
1
1.0356808
1.0064782
1.0116771
1.0491612
1.0033352
1
1.0000001
1
1.0345138
1.0017163
1
1.048159
1.0000952
1.0000012
1
1
1.0045201
1.0001252
1.0000041
1.0116628
1
1
1
1
1
1
1
1
1.0000019
1.0000002
1
1
1
1
1
1
1
1
1
1
1
1
1
1
1
1
1
1
1
1
1
1
1
1
1
1
1
1
1
1
1.0021591
1.0000111
1
1.0001786
1.0083403
1.0027269
1.0193881
1.047271
1.0001178
1.0000047
1
1
1.034506
1.002222
1.0000002
1.0481552
1.0002411
1
1
1
1.0191248
1.0014061
1.000033
1.044407
1
1
1
1
1.0007316
1.0000256
1
1.0064291
1.0000011
1.0000001
1
1
1
1
1
1
1
1
1
1
1
1
1
1
1
1
1
1
1
1
1
1
1
1
1
1
1
1
1
1
1.0024228
1.0000005
1.000002
1.0000873
1.0000873
1.0008661
1.0180367
1.0124944
1.0000548
1.0000152
1.0000028
1
1.0308331
1.0031243
1.0002547
1.0341008
1.000612
1
1
1
1.0279372
1.0019618
1.0012775
1.0387914
1.0000089
1
1
1
1.0021924
1.0000401
1.0000987
1.0050994
1.0000004
1.0000001
1
1
1
1
1
1.000002
1
1
1
1
1
1
1
1
1
1
1
1
1
1
1
1
1
1
1
1
1
1
1
1
1.0019036
1.0000005
1.0000338
1.000002
1.0082605
1.0008715
1.0042012
1.0033312
1.0000573
1.0000692
1.0001211
1
1.0073714
1.0038432
1.0020941
1.009777
1.000296
1.0000007
1.0000002
1
1.0203098
1.0032702
1.0012579
1.0315793
1.0000048
1
1
1
1.0006768
1.0003892
1.0001045
1
1.0000001
1
1
1
1
1.0000044
1.0000006
1
1
1
1
1
1
1
1
1
1
1
1
1
1
1
1
1
1
1
1
1
1
1
1
1
1.0009963
1.0000001
1.0000069
1
1.028967
1.0012432
1.0002815
1.0033314
1.000436
1.0000337
1.0000303
1
1.0076972
1.0029008
1.0033185
1.003315
1.0000284
1.0000038
1
1
1.0179323
1.0042469
1.0003354
1.0254103
1.0000012
1
1
1
1.0012087
1.0016655
1.0006204
1.007181
1
1
1
1
1
1.0000704
1.0000211
1.0006725
1
1
1
1
1
1
1
1
1
1
1
1
1
1
1
1
1
1
1
1
1
1
1
1
1.0007123
1.0000001
1.0000002
1.338095
1.0575219
1.0002815
1.0002815
1.0022141
1.0013318
1.0000024
1.0000002
1.345889
1.0216373
1.0006406
1.0011611
1.0049063
1.0000007
1.0000005
1.0006323
1.3160138
1.0276388
1.0020032
1.0003337
1.0263975
1
1
1.0088342
1.2136995
1.0373525
1.0000199
1.0005255
1.0256215
1
1
1.0057618
1.0994307
1.0202836
1.0000001
1
1.0048124
1
1
1.0046793
1.0894111
1.0100823
1
1
1
1
1
1.0027705
1.0675426
1.0047336
1
1
1
1
1
1
1.0112652
1.0047568
1
1
1
1.000148
1.0000002
1.0891106
1.389804
1.2050218
1.0220086
1.0002815
1.0013
1.0012997
1.0000002
1.0920758
1.389804
1.2641621
1.018859
1.0002865
1.0065788
1.0000246
1.0000002
1.121915
1.3897277
1.291874
1.014023
1.0003013
1.0263987
1.0000774
1.0007069
1.107471
1.3895938
1.1873961
1.0549335
1.0008849
1.026396
1
1
1.1026736
1.3893323
1.0495183
1.0557877
1.004977
1.0077099
1.0000061
1.0000013
1.0659445
1.3887814
1.0105825
1.0213248
1.0023946
1
1
1
1.0651104
1.3879988
1.0011184
1.0000795
1
1
1
1
1.0648307
1.3868205
1.0038693
1.0029579
1
1
1.0000096
1.0271792
1.1184198
1.0534318
1.0628465
1.0917647
1.0222434
1.0006789
1.0002042
1.00882
1.1989224
1.0500295
1.0324109
1.04573
1.0121301
1.0087078
1.0000826
1.029092
1.1240827
1.0464041
1.0240583
1.03068
1.0074095
1.0256434
1.000064
1.0113916
1.0509613
1.0415144
1.0230474
1.0320583
1.0134664
1.02548
1
1.013822
1.0623878
1.041274
1.0152001
1.0694616
1.0229468
1.0066498
1.0003618
1.0314278
1.1093612
1.0390765
1.0071494
1.0946676
1.0194133
1.0000927
1.0001065
1.0257875
1.1093248
1.0400044
1.0012583
1.0669542
1.0525804
1.0105186
1.0003099
1.0214587
1.1091399
1.0779724
1.0023743
1.0681267
1.0439335
1.0019387
1.0021858
1.0857894
1.1989192
1.05318
1.0664024
1.0949972
1.0230756
1.0000978
1.0077121
1.1623792
1.1989224
1.049959
1.0487466
1.0372187
1.0145039
1.0084039
1.0000055
1.0496987
1.1142782
1.0327372
1.061943
1.0535055
1.0114087
1.015437
1.015587
1.0404502
1.0319502
1.0326053
1.068199
1.3137984
1.0377036
1.0212867
1.0357691
1.0980578
1.0478431
1.032189
1.1100747
1.3404377
1.1188266
1.0116538
1.0109741
1.0981117
1.1093248
1.0324646
1.0968536
1.3404377
1.1107142
1.0114992
1.0109541
1.0042239
1.1093582
1.0379422
1.0335758
1.1586291
1.0438854
1.0074174
1.0028647
1.0044958
1.0865206
1.0738145
1.0702245
1.0444424
1.0232548
1.0001565
1.0055621
1.0387857
1.0389494
4.1089998
16.614248
1.0257712
1.0063264
1.0013405
1.0228034
1.110346
1.0503294
4.5735809
20.59223
1.0003105
1.0302536
1.0048317
1.0194045
1.1104063
1.0397519
1.6908638
18.184167
1.0005906
1.038873
1.0062982
1.0346603
1.1102351
1.0217105
1.1679883
14.657603
1.0010616
1.0403126
1.0188979
1.0391065
1.0923835
1.0212749
1.0217105
12.669548
1.0022861
1.0249891
1.0078397
1.0137753
1.0228008
1.0201157
1.1455381
10.477653
1.261504
1.0034296
1.0021092
1.0068662
1.0021534
1.0021537
1.0238156
6.3885188
1.4443793
1.000711
1.0006738
1.0002659
1.0082549
1.0086101
1.0209915
2.0217619
1.3642366
1.0023881
1
1.0012496
1.0012268
8.2043968
80.955135
86.785832
1.0001773
1.0009804
1.0008469
1.0082357
1.0013471
11.866656
80.752855
89.122703
1.0001883
1.0079639
1.0065057
1.0132639
1.0227845
8.4417245
74.873259
88.781973
1.2500635
1.0098812
1.014082
1.0204748
1.0124821
5.7589232
61.897823
85.535631
1.893019
1.1614156
1.0020669
1.0157522
1.004722
2.1403632
45.110618
82.400843
5.5879599
1.2252079
1
1.0024209
1.0026266
4.673578
32.920906
66.205049
3.6909638
1.1314909
1
1.0002906
1.0113819
4.4414909
16.450507
81.565723
2.6916666
1.1033233
1.0000002
1
1.0736756
4.3793774
19.816564
27.130219
5.7725053
1.2013613
1.0000014
1.0012233
1.001223
76.990671
188.87656
160.53373
1.0001781
1.0001773
1.0003108
1.0012232
1.0012351
92.548416
188.8761
169.67818
1.0001767
1.0005965
1.0044258
1.0012735
1.0015509
59.469044
188.87645
173.22877
1.0001825
1.0024943
1.0042257
1.0017077
1.0019823
118.54858
188.87572
177.25873
1.0472104
1.016219
1.0000245
1.0007502
3.6222151
131.75166
188.87002
181.79524
1.0003873
1.0266735
1.0025704
1.0001617
2.7999491
69.954118
188.85185
178.65649
1.2955368
1.0849543
1.0038652
1.0003036
1.9260082
15.71712
183.68309
176.51065
1.0012785
1.0588318
1.0023459
1.0000013
1.1129912
31.65893
177.56146
166.13148
3.2475237
1.0170771
1.0000522
1.0875157
1.0012268
74.14892
188.8491
146.23733
1.0001767
1.0021546
1.0129005
1.0012735
1.2342356
89.432937
188.8761
153.18545
1.0001794
1.0001768
1.0012109
1.0329155
1.021661
84.280365
188.87591
152.53497
1.0001756
1.0001825
1.0002115
1.0776224
1.0097707
92.537453
188.86998
151.58027
1.0001742
1.0001853
1.0001644
1.0820385
1.1039506
94.177931
176.23051
152.81053
1.000174
1.0001474
1.0000485
1.0568438
1.0799724
75.828031
188.68691
145.16826
1.0001942
1.0092875
1.0461944
1.0170735
1.0323549
50.475905
163.19332
140.41408
1.0004668
1.0181902
1.1488284
1.0116537
1.1073011
32.108206
120.00349
126.94259
1.0011858
1.0184494
1.1758609
2.4383945
1.7405157
16.614169
31.494094
46.493871
1.0001931
1.0050944
1.0105077
2.3644351
2.7191939
21.341022
35.741135
45.881633
1.0001756
1.0018964
1.0026723
3.2444788
3.7097721
19.004545
23.850965
42.154732
1.0001742
1.000932
1.0037788
2.7674545
2.6646952
21.162522
30.780381
39.583357
1.000174
1.0001742
1.0005545
2.2094556
2.746785
19.913911
24.570854
34.08769
1.0001742
1.000174
1.0002353
1.8780888
4.4487508
23.678067
17.92518
30.751281
1.000174
1.0014516
1.0099866
1.5395618
3.9132105
34.990471
19.880598
25.298231
1.0001942
1.0214835
1.1282338
1.1913812
5.5373577
28.054679
18.611434
23.168056
1.0004668
1.046758
1.177121
2.5333555
1.6163142
1.2518021
1.0213626
8.8768391
1.0050625
1.002083
1.0151828
2.5602933
1.6123618
1.1426241
1.0277235
10.25901
1.0001944
1.0030337
1.0110852
2.5604931
2.0103993
1.1211572
1.3484611
9.5834703
1.0001844
1.0022285
1.0005279
2.6283909
2.2677371
1.1558426
1.67367
10.021422
1.0001742
1.0037833
1.0007491
2.6227542
2.3635682
1.1317963
1.8778709
8.9412826
1.0001742
1.0001899
1.0016745
2.61482
2.2878339
1.1338111
1.9852044
7.982407
1.0001942
1.0011755
1.0039972
2.6178395
2.3407051
1.2734939
2.1606437
5.6968024
1.0003862
1.0039758
1.0157231
2.6242636
2.9142573
1.0942564
2.3057664
3.7938425
1.0007249
1.005139
1.0315631
1.6077665
1.1122833
1.0974581
1.0212532
1.0120231
1.1227145
1.0020538
1.0020708
1.7618206
1.0679345
1.0455748
1.0213626
1.0587728
1.0679691
1.0051096
1.0112466
1.2870223
1.0158833
1.016562
1.0300594
1.0280191
1.0359124
1.0083029
1.0132571
1.4235855
1.0165247
1.0182238
1.0249737
1.024152
1.0468471
1.0111288
1.0043261
1.2905204
1.0182238
1.0197314
1.0266511
1.0063002
1.0517528
1.0001907
1.0008208
1.5112053
1.0286054
1.0234484
1.0772041
1.0030512
1.0732671
1.0001906
1.0006596
1.3556123
1.0345981
1.0290296
1.2110808
1.028432
1.1154197
1.0001916
1.0008339
1.3919366
1.0312903
1.0310495
1.3065732
1.1202581
1.0853709
1.0001939
1.0006093
1.0006451
1.0007734
1.6241645
1.3484143
1.011691
1.0965738
1.0039847
1.0007068
1.0142587
1.0008332
1.6882516
1.2186758
1.0060062
1.0369481
1.0017423
1.0037823
1.0062726
1.0008332
1.7019486
1.0609875
1.0007308
1.0103719
1.0013825
1.0132512
1.0100408
1.0292954
1.701402
1.1236828
1.001493
1.0095814
1.0064827
1.013259
1.0009496
1.0740581
1.6631492
1.1193848
1.0037458
1.0075834
1.0072181
1.0061104
1.0010399
1.0868427
1.4898634
1.0148804
1.0005461
1.0124117
1.0001898
1.0001897
1.0715229
1.1286612
1.4070001
1.0524935
1.0000324
1.0260005
1.0007464
1.000443
1.2411674
1.1382664
1.2287944
1.1266868
1.001103
1.036522
1.0026469
1.0021963
1.0006451
1.125042
2.1901238
1.6724931
1.0429637
1.1061168
1.0200444
1.0007068
1.000645
1.1995498
2.1902931
1.9147399
1.0003867
1.0415456
1.0000849
1.0013269
1.0044179
1.2049055
2.190157
2.1878584
1.0003776
1.0003686
1.0002672
1.0042661
1.0009341
1.1824786
2.1900456
1.8851676
1.0087935
1.0017304
1.0017969
1.0120022
1.0009484
1.3090405
2.1898259
1.3084298
1.0087925
1.0000175
1.0049419
1.0119933
1.0009496
1.4736244
2.1899429
1.6488283
1.00054
1.0000883
1.0065042
1.0119493
1.0222636
1.2671764
2.1894165
1.3844307
1.0000124
1.0004205
1.008302
1.0058766
1.1679752
1.248253
2.1864093
1.0173186
1.0000147
1.0005712
1.0027667
1.0009226
1.000645
1.6124029
2.190572
1.8126251
1.1283261
1.1061301
1.0061576
1.0009337
1.0113908
1.5692805
2.1905683
1.861646
1.0660916
1.0599922
1.0000847
1.002167
1.0006817
2.0604444
2.1904779
2.0099494
1.0485756
1.0029915
1.0000849
1.0012139
1.0007228
2.1524492
2.1903266
1.7649703
1.0190224
1.0000046
1.0001528
1.0045567
1.0711629
2.0205882
2.190212
2.0703664
1.0000058
1.0000087
1.0032672
1.0119652
1.1237216
1.9766005
2.1900705
2.1880988
1.0000049
1.0002841
1.0085279
1.011944
1.144987
1.9862912
2.1899936
1.9414771
1.0000082
1.0010722
1.0085098
1.0056054
1.2053797
1.9121126
2.189465
1.1286355
1.0000124
1.0006818
1.0034968
1.000022
1.0098446
1.6227458
2.190572
1.7232521
1.0863072
1.048705
1.0251263
1.0105124
1.0079388
1.8759944
2.190572
1.8842057
1.0087025
1.0600487
1.0000848
1.0023062
1.0006573
1.943804
2.1905695
1.8760576
1.0000099
1.0028481
1.0000852
1.0009866
1.0006819
2.01062
2.1904779
1.7902745
1.0000046
1.0000046
1.0000046
1.0003805
1.0007228
2.1535379
2.1903266
1.7594237
1.0000045
1.0000046
1.0011438
1.0089069
1.0921225
2.1438526
2.1901351
1.7702602
1.0000046
1.0000684
1.0056833
1.011889
1.0979606
2.0061497
2.1894794
1.5374018
1.0000049
1.0010708
1.0082635
1.0040718
1.1724833
1.9743235
2.1648495
1.0527543
1.0000082
1.0042178
1.0082304
1.0000125
1.0014364
1.2694614
2.190572
1.4254935
1.0046665
1.0152504
1.0295071
1.01493
1.0012978
1.4371375
2.1905695
1.4151832
1.0051524
1.0601026
1.0018833
1.0018308
1.0006287
1.460887
2.1905686
1.3733771
1.0000047
1.0045785
1.0000045
1.0015685
1.0018381
1.5703892
2.1905585
1.3493277
1.0000045
1.0000045
1.0000045
1.0000049
1.003415
1.6125864
2.1903129
1.2493971
1.0000045
1.0000086
1.0000822
1.0023639
1.076749
1.609521
2.1894528
1.1620581
1.0000045
1.0000046
1.0020858
1.007968
1.1296886
1.56051
2.0401275
1.0957451
1.0000045
1.000734
1.0042416
1.0034066
1.183143
1.6406392
1.9405801
1.0020362
1.0000253
1.002224
1.0024361
1.0002025
1.0013947
1.0525418
1.4571125
1.0410493
1.0000617
1.004255
1.0141077
1.0104392
1.0008863
1.1132518
1.6543688
1.0290419
1.0121777
1.0600895
1.005509
1.0017474
1.0007661
1.066519
1.7409607
1.0126903
1.0084001
1.0081156
1.0000045
1.0015566
1.0043792
1.2108121
1.9233258
1.0000045
1.0000045
1.0000045
1.0000045
1.0000045
1.0013167
1.4049136
1.5732465
1.0027362
1.0000045
1.0000187
1.0000147
1.0001568
1.0102137
1.6093164
1.5161903
1.0042313
1.0000045
1.0000305
1.0000879
1.0005527
1.1089803
1.3840199
1.8536985
1.0000048
1.0000045
1.0001392
1.0000305
1.0012279
1.181631
1.2516622
1.5123688
1.0000046
1.0000074
1.0000715
1.0000118
1.0008633
1.0012052
1.0011195
1.0023093
1.000886
1.0000609
1.0011193
1.0051307
1.0006065
1.0004033
1.0004594
1.0144349
1.0011693
1.0153656
1.0411193
1.0206151
1.0021112
1.0091617
1.0264912
1.019467
1.0039426
1.0183865
1.0123144
1.0000045
1.0015669
1.0229591
1.2610327
1.07639
1.0010769
1.0000045
1.0000045
1.0000045
1.0000045
1.0013087
1.5316537
1.0895535
1.0000046
1.0000058
1.0000238
1.0000045
1.0000148
1.0004306
1.6073159
1.0541405
1.0000045
1.0000045
1.0000127
1.0000045
1.0000535
1.0424273
1.2942347
1.0520104
1.0000045
1.0000045
1.0000045
1.0000045
1.00004
1.0644761
1.2121706
1.0511505
1.0000045
1.0000045
1.0000045
1.0000106
1.0002529
1.0006475
1.0017444
1.0031683
1.0009467
1.0000534
1.0010333
1.0023389
1.0000154
1.0000305
1.0001005
1.0001826
1.0005875
1.013273
1.0243737
1.0243777
1.0052499
1.0102829
1.049228
1.0014077
1.0025361
1.0183936
1.0153323
1.0017229
1.0013735
1.0492023
1.407287
1.0041041
1.0023312
1.0000052
1.0000044
1.0000045
1.0002257
1.0001944
1.5471753
1.0000046
1.0000045
1.0000049
1.0000172
1.0000071
1.0000053
1.0009627
1.5478698
1.0000046
1.0000045
1.0000045
1.0000049
1.0000098
1.0000049
1.0262987
1.3407427
1.0000048
1.0000045
1.0000045
1.0000045
1.0000045
1.0000045
1.020695
1.2569078
1.0000061
1.0000045
1.0000045
1.0000045
1.0000045
1.0000051
1.0002449
1.0034177
1.0060601
1.0016642
1.000031
1.0008532
1.000495
1.0000144
1.0000303
1.0000313
1.0001669
1.0006564
1.0100523
1.0181218
1.0235661
1.0094095
1.0026786
1.0161649
1.0004248
1.0016883
1.0163953
1.0199872
1.0089347
1.0010537
1.0700549
1.3090898
1.0000074
1.0015191
1.0000044
1.0000044
1.0000044
1.0012497
1.0600259
1.5455573
1.0000045
1.0000044
1.0000044
1.0000046
1.0000106
1.0000054
1.0347206
1.5476296
1.0000045
1.0000045
1.0000045
1.0000061
1.0000436
1.0000053
1.0996352
1.4500126
1.0000045
1.0000045
1.0000045
1.0000045
1.0000098
1.0000378
1.1143857
1.2236679
1.0000059
1.0000045
1.0000045
1.0000046
1.0000046
1.0000046
1.0001975
1.0034197
1.0065844
1.0016318
1.0000017
1.00048
1.000626
1.0000142
1.0000303
1.0000304
1.000278
1.0010517
1.0091901
1.0184437
1.0145953
1.0071675
1.0001527
1.0012992
1.0000285
1.0022192
1.0209691
1.0255412
1.0170624
1.0010901
1.0212745
1.0620518
1.0000118
1.0003228
1.0000044
1.0000044
1.0000044
1.0013717
1.0563696
1.2999764
1.0000045
1.0000044
1.0000044
1.0000044
1.0000068
1.0000238
1.0711414
1.4796114
1.0000045
1.0000045
1.0000063
1.0000049
1.0000451
1.0000256
1.1877956
1.4539309
1.0000045
1.0000045
1.0000045
1.0000045
1.000056
1.0001148
1.2217524
1.143536
1.0000056
1.0000045
1.0000045
1.0000325
1.0000046
1.0000046
1.0001863
1.0016543
1.0065843
1.0009661
1
1.0002033
1.0005736
1.000014
1.0001166
1.0001122
1.0006956
1.0012042
1.0065639
1.0174878
1.0047187
1.000968
1.0000068
1.0000067
1.0000076
1.0029645
1.0308323
1.0308807
1.0219138
1.0006499
1.0005738
1.0001622
1.0001459
1.0001288
1.0000044
1.0000044
1.0000707
1.0013719
1.0141167
1.0325925
1.0031923
1.0000044
1.0000044
1.0000044
1.0000045
1.0001004
1.0341689
1.141679
1.0002779
1.0000044
1.0000057
1.0000044
1.0000229
1.0000263
1.1278855
1.2028157
1.0000046
1.0002972
1.0000045
1.0000044
1.0000549
1.0001159
1.2192644
1.0500325
1.0000072
1.0000504
1.0000045
1.0000118
1.0000046
1.0000147
1.0001215
1.0001094
1.0043764
1.0002585
1
1.0000001
1.0001565
1
1.0001261
1.0001097
1.0017082
1.0026348
1.0010236
1.0091793
1.0001667
1.0002569
1.00015
1.0000061
1.000005
1.0012099
1.0280989
1.0309901
1.0163715
1.0003125
1.0000311
1.0000035
1.0000037
1.0000045
1.0033893
1.0016921
1.0009509
1.0004556
1.000065
1.0057392
1.0131248
1.0489353
1.0009401
1.0000161
1.0000046
1.0000882
1.0042507
1.0030165
1.005922
1.0547525
1.0000627
1.0000044
1.0000114
1.0000091
1.0099586
1.0004399
1.0005704
1.0066283
1.0000945
1.0000045
1.000018
1.000116
1.0823603
1.0017306
1.0001517
1.0010629
1.0000046
1.0000045
1.0000049
1.0000583
1.0000744
1
1.0000312
1.0000721
1
1
1
1
1.0000272
1.0000057
1.0020415
1.0030689
1.0000328
1.0004334
1.0010267
1.0025
1.0001755
1.0000035
1.0001295
1.0015973
1.0071756
1.0230697
1.0045865
1.0011493
1.0005705
1.0000035
1.0000035
1.0233808
1.0108193
1.0064927
1.0017111
1.0002333
1.0003471
1.00669
1.0079715
1.1432983
1.0111483
1.0004366
1.0000871
1.0001462
1.0001041
1.0028851
1.0200226
1.15647
1.0045755
1.000541
1.0000857
1.0000441
1.0000799
1.0000436
1.004882
1.0332649
1.002294
1.0001757
1.000044
1.0000535
1.0047386
1.0000075
1.0002991
1.0003141
1.0017101
1.0000046
1.0000048
1.0000392
1.0000087
1
1
1.0000011
1.0000001
1
1
1
1.0000252
1.0004898
1.0009402
1.0030278
1.000007
1.0001131
1.0041581
1.0029867
1.0001946
1.0000158
1.0017036
1.012473
1.0000318
1.0023702
1.0023206
1.0009201
1.0006353
1.0002497
1.0009608
1.0341415
1.0074583
1.0082436
1.0023747
1.0001005
1.0003064
1.0048551
1.0000902
1.1565905
1.0243897
1.005562
1.0008166
1.0001555
1.0000676
1.0030707
1.0921133
1.1567
1.0179675
1.0036569
1.0002902
1.0001275
1.004203
1.0007279
1.0525412
1.1558785
1.007392
1.0017243
1.0001932
1.00006
1.0064322
1.0000592
1.0036945
1.0318853
1.005836
1.0003221
1.0000622
1.0000428
1.0000007
1
1
1
1.0000005
1
1
1
1.0000289
1.0009896
1
1.0020923
1.0000002
1.004376
1.0047299
1.0004582
1.0001769
1.0002904
1.0058224
1.0260767
1.0008033
1.0018678
1.0014721
1.0021277
1.0003963
1.0003215
1.0015823
1.0264204
1.0028672
1.0082375
1.0014721
1.0005488
1.0001059
1.0004999
1.0000717
1.1399429
1.0199751
1.0101112
1.0007631
1.0000733
1.0000671
1.0010122
1.0576685
1.1567718
1.0192576
1.0047726
1.0003189
1.0000728
1.0044179
1.0000583
1.1316953
1.1568691
1.0108411
1.0026163
1.0002409
1.0000479
1.0064297
1.0001469
1.0359514
1.1569555
1.0050288
1.0014494
1.000294
1.0000706
1
1
1
1
1.0000001
1
1
1
1.0000018
1.0009897
1
1.0002325
1.0000001
1.005315
1.0014847
1.0000056
1.0004847
1.0007769
1.0061312
1.0168138
1.0008142
1.0015
1.0041618
1.0048186
1.0001984
1.000156
1.0033353
1.0241708
1.0016115
1.003268
1.0001641
1.0037754
1.0000661
1.0000623
1.0000643
1.051874
1.0140471
1.0053586
1.0001619
1.0003365
1.0000666
1.0001086
1.0127124
1.1456116
1.01338
1.0028287
1.0001617
1.0000177
1.0009331
1.0000458
1.0894957
1.1569656
1.0081662
1.0013419
1.0001092
1.0000105
1.0020655
1.0000448
1.0452747
1.1569555
1.003468
1.0013298
1.0002534
1.0000064
1
1
1
1
1
1
1.0000003
1
1
1.0002301
1.0001763
1.0000423
1.000354
1.0057519
1.0004417
1.0000904
1.0006591
1.0005655
1.0024768
1.0031812
1.0007298
1.0002586
1.0191941
1.0038132
1.0001555
1.0000487
1.0091261
1.0143937
1.0022273
1.0002495
1.0178219
1.0030441
1.0009687
1.0000478
1.0019649
1.005304
1.0169288
1.0002393
1.0056943
1.0028077
1.0029191
1.000047
1.0010233
1.1194014
1.0137767
1.0002259
1.0000179
1.0003726
1.0000466
1.0000463
1.0197
1.1569555
1.0083821
1.0000356
1.0000174
1.0000099
1.0000462
1.0000456
1.0282927
1.1569598
1.005295
1.0011678
1.0001306
1.0002088
1.0000002
1
1
1.0000003
1
1
1.0000002
1
1.0000008
1.0000007
1.000071
1.0000322
1.0007675
1.0182477
1
1.0001602
1.0002742
1.0000008
1.0004144
1.0000474
1.002101
1.0318781
1.0144241
1.0008489
1.0003307
1.0054778
1.0050033
1.001557
1.0037512
1.0252428
1.0483503
1.0003286
1.009079
1.0067719
1.0043992
1.0062447
1.0185632
1.0009357
1.048333
1.0033575
1.0145348
1.0001163
1.0021731
1.1051265
1.0346989
1.0000192
1.0074919
1.0014558
1.0189863
1.0000466
1.0032729
1.1569535
1.0286778
1.0000188
1.0000179
1.0007773
1.0141675
1.0000463
1.0126411
1.1569555
1.0329942
1.0000192
1.0000252
1.0014058
1.0000003
1
1
1
1.0000001
1
1
1.0000009
1.000003
1
1
1.0000062
1.0004875
1.0331449
1
1.0001106
1.0000948
1.0015549
1.0001953
1.0000207
1.0018766
1.0922669
1.0301436
1.0000017
1.0005014
1.0408253
1.0032762
1.0000005
1.00047
1.1796461
1.0418964
1
1.0084292
1.0629891
1.004884
1.0025376
1.0145582
1.182869
1.0346374
1.0000324
1.0162036
1.071296
1.0145333
1.0306116
1.0720915
1.1271103
1.0474617
1.0000998
1.0398347
1.0564688
1.0067464
1.1524806
1.1084686
1.0068866
1.0075619
1.0021046
1.0366269
1.0283564
1.0068075
1.1114355
1.0889999
1.0000252
1.0000267
1.0018113
1.0000001
1
1
1
1.0000002
1
1
1
1.0000048
1
1
1
1.0003309
1.0602399
1.0065796
1.0000561
1.0000048
1.0006331
1.0000347
1.0000211
1.0025142
1.1812622
1.0369334
1
1.0036141
1.0366178
1.0020845
1.0000001
1.0000188
1.1829173
1.0288088
1
1.0053501
1.0719843
1.0066636
1.0011512
1.0111932
1.1828736
1.0281396
1
1.0134841
1.0720185
1.0147785
1.0128001
1.0703491
1.1829218
1.0793146
1.0002045
1.0430543
1.0720324
1.0146609
1.0777314
1.1224212
1.169857
1.1391373
1.0000034
1.0384241
1.0720256
1.0093947
1.0644108
1.0804721
1.1182808
1.1254806
1.0000046
1
1.0000007
1
1
1
1.0000029
1
1
1.0000004
1.0000174
1
1
1.0000724
1.0206273
1.0019567
1.000023
1.00044
1.0000371
1.0000129
1.0000129
1.0024504
1.1685617
1.0322161
1.0000341
1.0137058
1.0078888
1.0011831
1.0000001
1.0034264
1.1829084
1.0304945
1.0000221
1.0113513
1.046818
1.0075704
1.000252
1.0047072
1.1829325
1.0224562
1.0000001
1.0164412
1.0720324
1.0106199
1.0013836
1.0469743
1.1829218
1.0839534
1.0001579
1.0488867
1.072034
1.0718696
1.0092527
1.0600939
1.1829267
1.1533634
1.0000019
1.0413187
1.0720353
1.0266778
1.0179364
1.0469663
1.1828613
1.1366326
1.0000034
1
1.0000015
1
1
1
1.0000003
1
1
1.0000024
1.0000511
1.0000026
1
1
1.0006111
1.0000001
1.0000001
1.0011847
1.0000135
1.000013
1
1.0006162
1.0544504
1.0070251
1.00002
1.015539
1.00047
1.0006093
1
1.0033484
1.1675467
1.0145529
1.0000139
1.0201029
1.0061554
1.0052481
1.0002836
1.0000384
1.1828718
1.0157266
1.0000001
1.0367145
1.0367107
1.0174488
1.0003641
1.0061072
1.1829284
1.033878
1.0000001
1.0577454
1.0702132
1.0627745
1.0003721
1.0176126
1.182865
1.0479071
1.0000006
1.0562917
1.0720345
1.0361695
1.0036703
1.0153942
1.1827205
1.0726456
1.0000019
1
1.0000001
1
1
1
1
1
1
1.0000047
1.0000551
1.0000026
1
1
1
1
1
1.0007055
1.0001108
1.0000016
1
1.0000013
1.0019242
1.0000023
1.0000042
1.0166969
1.0008527
1.000057
1
1.0018072
1.0579812
1.0028746
1
1.0281276
1.001517
1.0009737
1.0000629
1.0000287
1.1232459
1.0107342
1.0001066
1.0346333
1.0029766
1.0081735
1.000362
1.0000062
1.1608481
1.0103712
1.0012582
1.057691
1.0208207
1.0271264
1.0005093
1.0000701
1.1827205
1.0013584
1.0011923
1.0572762
1.0606364
1.0437733
1.0055371
1.0001428
1.1826142
1.0089996
1.0000034
1
1
1
1
1
1
1
1
1.0000447
1.0000374
1.0000006
1.0000001
1
1.0000002
1
1
1.0006225
1.000677
1.0000209
1
1
1
1
1.0000011
1.0110427
1.0007519
1
1
1.0002086
1.0025996
1.0000199
1
1.0281823
1.0017629
1.0000098
1
1.0000727
1.0364499
1.0029538
1.0022464
1.0324451
1.0001603
1.0005375
1.0001232
1.000006
1.1284882
1.0059789
1.0064456
1.0449174
1.0000902
1.0035069
1.000046
1.000006
1.182269
1.0088021
1.0152554
1.0399582
1.011943
1.0317432
1.0047258
1.0000066
1.182457
1.0054292
1.0019812
1
1
1
1
1
1
1
1
1.0001085
1
1
1.0000001
1
1.0000013
1.0000001
1
1.0013148
1.0011762
1.0001028
1.0000004
1.0000002
1.0000039
1.0000016
1.0000001
1.0015753
1.0008026
1.0000305
1.0000004
1.0000035
1
1
1
1.0212162
1.0018982
1.0000444
1
1.0000137
1.0014551
1.0002857
1.0043205
1.0324371
1.0000614
1.0000137
1.00045
1.000006
1.0483364
1.0040642
1.0119679
1.031534
1.0000758
1.0016842
1.00002
1.000006
1.1660553
1.0180753
1.0184173
1.0212379
1.0004766
1.0062117
1.0012855
1.000006
1.1820954
1.0295413
1.0102968
1
1
1
1
1
1
1
1
1.0000181
1
1
1.0000001
1.0000001
1.0000025
1.0000001
1
1.0016231
1.0010017
1.0002776
1.0000019
1.0000015
1.0000365
1.0000061
1
1.0011117
1.0013485
1.0020463
1.0000043
1.0000115
1
1
1
1.0062904
1.0028658
1.0001359
1.0000001
1.0000017
1.0000001
1.0025779
1.0035509
1.0233127
1.0081986
1.0000137
1.001083
1.0000248
1.0036444
1.01178
1.0112782
1.0206742
1.0033104
1.0036544
1.002644
1.000006
1.1129995
1.0272801
1.0176064
1.0151145
1.0005313
1.0005353
1.0027218
1.0000063
1.1819088
1.0499799
1.0320602
1
1
1
1
1
1
1
1
1.0001005
1
1
1
1.0000003
1.0000003
1
1
1.0022373
1.0003547
1.000349
1.0000002
1.000002
1.0000643
1.0000059
1
1.0012989
1.0013589
1.0021109
1.0000066
1.0000372
1.000125
1
1
1.0069072
1.0013836
1.0002841
1.0001939
1.0000011
1.0000006
1.0042695
1.0015366
1.0131792
1.0098808
1.0000137
1.0041128
1.0000975
1.0000011
1.0250431
1.0074363
1.0034383
1.0197819
1.0043541
1.0168002
1.0000062
1.0363045
1.0338909
1.0115506
1.0093008
1.00804
1.0116885
1.013452
1.0000064
1.1543243
1.0484834
1.0302235
1
1
1
1
1
1
1
1
1.0000399
1
1
1
1.0000006
1
1
1
1.0018108
1.0000158
1.0001856
1
1.0000007
1.0000406
1.0000008
1
1.0014102
1.0007802
1.0021106
1.0000709
1.0000615
1.0006298
1.0000237
1
1.0067184
1.0002856
1.0042832
1.0003364
1.0000925
1.0000011
1.003756
1.0006401
1.011791
1.0095199
1.0037101
1.0112908
1.0000804
1.0000011
1.0270021
1.0033242
1.0016903
1.0197859
1.0072732
1.0201968
1.0046885
1.0010381
1.0361147
1.0049749
1.0103675
1.0189637
1.0201688
1.0201953
1.0024399
1.0498145
1.0367498
1.0182685
1
1
1
1
1
1
1
1
1
1
1
1
1.000001
1
1
1
1.0008264
1.0000013
1.0000225
1.0000026
1.0000003
1.0000015
1
1
1.0011758
1.0000764
1.0022312
1.0001528
1.0001803
1.0035427
1.0005192
1.0000119
1.0036107
1.0002817
1.0061886
1.0004426
1.0007121
1.0128111
1.0051129
1.0002028
1.0088612
1.0106151
1.0074849
1.013726
1.0000806
1.0198528
1.0268402
1.0011829
1.0013852
1.0197849
1.0076426
1.020198
1.0184869
1.0035915
1.0361163
1.0005864
1.0066944
1.0197859
1.0157527
1.0201968
1.0087093
1.0088725
1.0361014
1.0035032
1
1
1
1
1
1
1
1
1
1
1
1
1.000001
1
1
1
1.0000847
1.0000013
1.0000012
1.0000112
1.0000095
1.0001842
1.0000121
1.0000001
1.0010568
1.0000013
1.002225
1.0001133
1.0004482
1.0168838
1.0021135
1.0000142
1.0009493
1.0000741
1.0036596
1.0002869
1.0006722
1.0384571
1.0073763
1.0001343
1.0023686
1.0069067
1.0022281
1.0098824
1.0012114
1.0390665
1.0259499
1.0004994
1.0013765
1.0171894
1.0042377
1.0201971
1.0176245
1.0298463
1.0359477
1.0000107
1.0015134
1.0197734
1.0022274
1.0188321
1.0085335
1.0098104
1.0369631
1.0002038
1
1
1
1
1
1
1
1
1
1.0000001
1
1
1.0000009
1
1
1
1.0001536
1.0000024
1
1.0000011
1.0000135
1.0006214
1.0000164
1.0000001
1.0009894
1.0000013
1.0012624
1.0000901
1.0006418