/*--------------------------------*- C++ -*----------------------------------*\
  =========                 |
  \\      /  F ield         | OpenFOAM: The Open Source CFD Toolbox
   \\    /   O peration     | Website:  https://openfoam.org
    \\  /    A nd           | Version:  13
     \\/     M anipulation  |
\*---------------------------------------------------------------------------*/
FoamFile
{
    format      ascii;
    class       volScalarField;
    location    "0.1";
    object      rho;
}
// * * * * * * * * * * * * * * * * * * * * * * * * * * * * * * * * * * * * * //

dimensions      [1 -3 0 0 0 0 0];

internalField   nonuniform List<scalar> 
51200
(
900
900
900
900
900
900
900
900
900
900
900
900
900
900
900
900
900
900
900
900
900
900
900
900
900
900
900
900
900
900
900
900
900
900
900
900
900
900
900
900
900
900
900
900
900
900
900
900
900
900
900
900
900
900
900
900
900
900
900
900
900
900
900
900
900
900
900
900
900
900
900
900
900
900
900
900
900
900
900
900
900
900
900
900
900
900
900
900
900
900
900
900
900
900
900
900
900
900
900
900
900
900
900
900
900
900
900
900
900
900
900
900
900
900
900
900
900
900
900
900
900
900
900
900
900
900
900
900
900
900
900
900
900
900
900
900
900
900
900
900
900
900
900
900
900
900
900
900
900
900
900
900
900
900
900
900
900
900
900
900
900
900
900
900
900
900
900
900
900
900
900
900
900
900
900
900
900
900
900
900
900
900
900
900
900
900
900
900
900
900
900
900
900.00001
900
900
900
900
900
900
900.00001
900
900
900
900
900
900
900
900
900
900
900
900
900
900
900
900
900
900
900
900
900
900
900
900
900
900
900
900
900
900
900
900
900
900
900
900
900
900
900
900
900
900
900
900
900
900
900
900
900
900
900
900
900
900
900
900
900
900.02007
900.03694
900
900
900.03073
900.01697
900
900
900.00062
900.01715
900
900
900.01442
900.00058
900
900
900
900
900
900
900
900
900
900
900
900
900
900
900
900
900
900
900
900
900
900
900
900
900
900
900
900
900
900
900
900
900
900
900
900
900
900
900
900
900
900
900
900
900
900
900
900
900
900
900.0346
900.03713
900
900
900.03084
900.02707
900
900
900.00748
900.03712
900
900
900.03083
900.00382
900
900
900.00671
900.02312
900
900
900.01936
900.00144
900
900
900.00447
900.00148
900
900
900.00078
900
900
900
900.00018
900
900
900
900
900
900
900
900
900
900
900
900
900
900
900
900
900
900
900
900
900
900
900
900
900
900
900
900
900
900
900.00684
900.01974
900.00788
900
900
900.00625
900.00672
900
900.19416
900.11821
900.00471
900
900
900.00634
900.04589
900.07378
900.00803
900.046
900.02636
900
900
900.00892
900.04656
900
900
900.00446
900.01132
900
900
900.0094
900.04609
900.00702
900.00313
900.00002
900
900
900
900.0052
900.04536
900.00713
900.00378
900
900
900
900
900.00033
900.03182
900.00407
900.00315
900
900
900
900
900
900.00188
900.00043
900.00387
900.00095
900
900
900
900
900
900.00003
900.0042
900.00417
900.00004
900.00965
900.0092
900.00004
900.003
900.00036
900.1297
900.00352
900
900
900
900
900.00106
900.10759
900.00929
900.01159
900.00597
900
900
900.00021
900.00037
900.00037
900.02159
900.00852
900.01079
900
900
900.00186
900.02238
900.00825
900.02015
900.00081
900.0014
900
900
900.00461
900.04482
900.00678
900.01272
900
900
900
900
900.00175
900.04384
900.00767
900.01686
900
900
900
900
900
900.01599
900.00165
900.01807
900.0028
900
900
900
900
900
900.00002
900.00428
900.00421
901.05493
900.22949
900.23061
901.03615
900.00281
900.00132
901.36002
900.00387
900.18443
900
900
900.17222
900.0022
900.7363
900.12247
900.02222
900.00004
900
900
900
900.00913
900.05743
900.00484
900.0044
900.00103
900
900
900
900.04236
900.00707
900.0323
900.00019
900.00019
900
900
900.00219
900.02309
900.00592
900.03732
900.01774
900
900
900
900.00091
900.00884
900.00123
900.03559
900.04896
900
900
900
900
900.00144
900.00115
900.0186
900.03117
900
900
900
900
900
900.00114
900.00438
900.00428
907.45559
900.6617
900.66572
907.49689
900.00292
900.00254
901.88462
900.00438
902.02639
900
900
902.02233
900.00304
902.27485
900.35245
900.02264
900
900
900
900
900.18011
900.22223
900.00128
900.00023
900
900
900
900
900.08697
900.0145
900.04519
900.08398
900
900
900
900.00009
900.00042
900.03819
900.03126
900.13274
900
900
900
900.00001
900.00002
900.02806
900.01672
900.05492
900.00001
900
900
900
900
900.02382
900.00661
900.00524
900
900
900
900
900
900.02879
900.00449
900.00438
917.52729
900.88366
900.87968
917.50648
900.00304
900.00323
901.1514
900.00449
908.56201
900
900
908.64245
900.00323
901.87825
900.4024
900.01146
900.05286
900
900
900.08561
900.05268
900.53296
900.02293
900.0019
900.00004
900
900
900.00007
900.09644
900.03934
900.05347
900.1695
900
900
900
900
900.02386
900.05446
900.02268
900.1354
900.00031
900
900
900
900
900.05232
900.0055
900.01306
900.00001
900
900
900
900
900.05096
900.00131
900.00001
900
900
900
900
900
900.06122
900.00459
900.00449
920.49584
901.13838
901.13896
920.31794
900.00323
900.00338
900.80945
900.00459
914.29219
900
900
914.28766
900.00338
901.15459
900.72031
900.09779
902.18646
900
900
902.33901
900.2418
901.20953
900.06006
900.00163
900
900
900
900
900.2113
900.04231
900.07621
900.15938
900
900
900
900
900.02529
900.04223
900.04664
900.31964
900
900
900
900
900.00001
900.12604
900.01374
900.06391
900.00001
900
900
900
900
900.10078
900.00241
900.00002
900
900
900
900
900
900.10782
900.00471
900.00459
920.58213
902.23463
902.25954
920.43766
900.00338
900.00354
900.94232
900.00471
916.55283
900
900
916.29317
900.00354
900.98561
901.28986
900.21832
906.07528
900
900
906.2466
900.53246
901.66194
900.08683
900.02711
900
900
900
900
900.45982
900.05614
900.16902
900.84989
900.00178
900
900
900.00001
900.05324
900.06172
900.10552
900.6711
900
900
900
900
900.00002
900.31834
900.01744
900.02978
900.00001
900
900
900
900
900.32591
900.00316
900.00008
900
900
900
900
900.0225
900.29635
900.00484
900.00471
920.64081
903.70483
903.74978
920.5537
900.00354
900.00369
901.0064
900.00484
917.04514
900
900
916.90435
900.00369
900.86752
901.03296
900.53869
908.91448
900
900
909.06568
901.16671
900.83769
900.24816
900.08993
900.12568
900
900
900.22067
900.7483
900.34102
900.3545
900.6843
900
900
900
900
900.01328
900.28892
900.26761
901.93347
900
900
900
900
900.00006
900.53976
900.06355
900.37687
900.00002
900
900
900
900
900.63177
900.0042
900
900
900
900
900
900.07905
900.61339
900.005
900.00484
923.17756
904.5891
904.63391
923.18528
900.00369
900.00386
901.34087
900.005
918.55799
900
900
918.55344
900.00386
901.35095
901.43181
900.79013
910.2265
900
900
910.34652
901.13867
901.66867
900.37249
900.20202
900.43086
900
900
900.56117
900.52692
900.38941
900.69297
900.31393
900
900
900
900
900.01682
900.4424
900.78092
903.09023
900
900
900
900
900.38644
900.89943
900.3447
901.40586
900.00004
900
900
900
901.4088
900.86125
900.04954
900.00009
900
900
900
900
900.82701
900.42046
900.00518
900.005
928.48258
905.37787
905.41292
927.63819
900.00386
900.00405
901.67638
900.00518
922.31868
900
900
921.89801
900.00405
901.73492
900.8625
900.61243
912.20308
900
900
912.20734
900.77827
902.39278
900.52801
900.22852
900.77728
900
900
901.05083
901.91478
900.43163
901.96661
900.64332
900
900
900
900.00011
901.8996
900.50186
901.57474
903.25312
900
900
900
900
901.85639
900.73718
901.00415
902.84178
900.00011
900
900
900.00006
901.61476
900.73626
900.24471
900.34345
900
900
900
900
900.31338
900.33358
900.0054
900.00518
930.65636
906.95997
906.96202
930.04392
900.00405
900.00429
902.1989
900.0054
925.53908
900
900
925.07056
900.00429
902.58418
900.95101
900.34969
915.0685
900
900
915.23216
903.14529
901.54541
900.63405
900.24985
901.64533
900
900
901.86532
902.70712
900.45881
902.56601
902.79474
900
900
900
900.00024
900.60394
900.86558
901.44582
903.4126
900
900
900
900
900.08851
901.82715
900.92391
903.01822
900.00018
900
900
900
900.93891
901.31745
900.24374
900.30272
900
900
900
900
901.19991
900.60558
900.00565
900.0054
931.9031
909.95835
909.92929
931.83249
900.00429
900.00466
903.04711
900.00565
927.48041
900
900
927.84347
900.00466
906.95967
903.53263
900.17262
918.06124
900
900
918.44341
903.60814
901.56994
900.66901
903.5602
903.60328
900
900
903.14399
902.43467
900.49798
900.89069
903.8517
900.00113
900
900
900.00028
900.09121
901.24243
901.08773
903.50281
900.00014
900
900
900
900.00053
902.88527
900.46414
900.73428
900.00006
900
900
900
900
902.43692
900.20933
900.0183
900
900
900
900
902.11381
901.22625
900.00595
900.00565
934.7196
914.27726
914.50962
934.16252
900.00466
900.00519
904.64554
900.00595
929.9228
900
900
930.17823
900.26164
911.84462
906.70032
906.86382
921.34493
900
900
920.95119
902.51968
900.63344
900.686
906.00529
905.7205
900
900
904.89981
902.05059
900.56708
900.686
901.39225
900
900
900
900.00131
900.15511
902.58222
901.12681
900.0454
900
900
900
900
900.00067
903.81176
901.14498
900.00001
900
900
900
900
900
903.62091
901.15321
900.0826
900
900
900
900
902.44444
902.07258
900.00627
900.00595
937.22305
918.69055
920.40998
937.86253
900.00519
900.00575
905.46351
900.00628
933.63662
900
900
933.84346
901.62038
911.53731
907.92143
904.34154
924.59525
900
900
924.19918
902.30719
900.77172
900.70438
901.73536
907.66462
900
900
907.2526
901.59813
900.69375
901.27711
901.71097
900
900
900
900
900.10875
903.5102
902.29746
905.74214
900
900
900
900
900.012
903.82544
901.73903
902.708
900.00015
900
900
900
901.67374
903.83056
901.10485
900.37551
900
900
900
900
903.43755
903.30492
900.00657
900.00627
937.80506
924.04707
927.63437
941.42014
900.00575
900.00625
905.78054
900.00657
934.73083
900
900
940.89915
902.72698
910.79911
907.81468
900.36046
928.10606
900
900
931.04327
902.30718
900.91897
900.7389
903.25809
911.9737
900
900
911.71144
901.75777
900.87214
901.71659
906.6925
900.03198
900
900
900
901.00627
904.06126
902.00174
906.06831
900.00001
900
900
900.00001
902.05326
903.2055
901.20041
902.8184
900.00013
900
900
900
903.65168
903.82984
900.30088
900.14839
900
900
900
900
903.58552
902.81757
900.00692
900.00657
938.73776
931.35521
934.88332
941.48277
900.00625
901.34829
911.25718
900.00692
933.41567
900
900.01572
941.4573
903.7024
912.73287
906.53782
900.07921
929.88779
900
900
937.33001
902.55986
901.0357
900.7724
909.35407
917.2819
900
900
919.92591
906.54439
901.49138
901.75582
906.76646
900.70575
900
900
900.51506
905.36804
906.6961
903.9237
902.33015
900
900
900
900
902.87519
900.533
901.16944
901.61203
900.00001
900
900
900
902.15776
901.14134
901.24616
900.24768
900
900
900
900
901.69664
901.30181
900.00733
900.00692
941.04571
938.71913
938.15341
942.20175
900.00932
901.83492
912.79525
900.00733
932.02612
900
900
937.21747
905.57565
917.21036
909.26187
901.75071
929.6064
900
900
934.36855
903.79676
901.13176
900.81174
906.40626
919.33867
900
900
921.02986
903.64373
901.97774
902.67276
903.74678
901.5468
900
900
901.346
907.41947
906.80657
904.99419
900.39023
900
900
900
900
904.03786
900.51118
903.4165
901.43164
900
900
900
900
900.52816
900.49234
903.40282
903.14002
900
900
900.00001
900
900.03005
900.46097
900.00768
900.00733
945.81899
947.04661
948.27827
948.22672
903.13194
917.46545
910.28092
900.00768
933.59024
900
900
940.66755
909.29838
904.86403
911.71202
900.92677
930.16182
900.00227
900
933.97373
906.01492
901.30587
900.86214
905.45403
920.95608
900
900
920.60846
903.71978
905.20356
903.26883
907.57834
902.79932
900
900
902.03081
907.49038
907.47942
905.07846
905.7399
900.00009
900
900
900.00039
906.60907
901.47933
902.31969
904.41555
900
900
900
900
901.99329
900.84818
902.99923
903.31473
900
900
900
900.00001
900
900.56477
900.00802
900.00768
953.62086
957.54615
960.62709
960.80374
916.46193
918.89095
909.76553
900.00802
941.59699
901.95509
902.45841
952.69898
907.3504
901.64579
913.27446
904.30759
935.10503
901.12238
900.10079
939.56047
906.706
901.47612
900.9094
910.3354
925.83656
900
900.00011
923.11936
907.4961
904.44194
902.44956
907.59303
906.08704
900
900
903.34541
907.50373
907.49992
906.10076
903.67673
900
900
900
900.00069
905.84871
905.51109
900.19421
903.3618
900
900
900
900
902.03597
901.67248
900.73635
902.1114
900
900
900
900.00001
900
901.16886
900.03348
902.44989
960.26044
961.19583
961.20606
961.20002
909.91254
905.68572
908.23329
900.07325
955.37518
905.17763
913.9017
958.96251
900.94614
905.81194
922.17273
905.17563
947.28869
902.35604
902.07716
951.01413
910.14723
916.07457
903.46768
909.26532
932.78192
900.0152
900.02773
932.50126
909.95454
903.56966
902.49151
903.24506
907.76092
900
900
907.34739
906.7089
903.51253
908.31797
905.84893
900.0002
900
900
900
902.46633
907.77557
901.40273
904.54347
900
900
900
900
900.9794
903.92889
900.75297
901.23986
900.00004
900
900
900
900.00001
901.67828
900.06239
910.61391
961.2121
961.2121
961.2121
951.60547
915.38351
903.82144
902.80319
900.12891
958.58927
920.80667
947.90088
945.10996
900.07811
904.71732
914.78706
907.75211
954.33463
901.46363
910.15479
950.79022
910.69103
916.22349
917.68706
909.22325
935.12756
900.0033
900.12709
942.47923
909.12655
910.71846
905.10531
907.15384
907.29557
900
900.00003
911.54259
903.43629
902.76555
908.33841
915.22221
900
900
900.00007
900.00276
900.17812
907.78478
905.92124
909.1226
900.00002
900
900
900
900.25384
907.81807
901.7521
901.62994
900.00015
900
900
900
901.7637
904.1041
900.18044
919.69482
961.21034
961.2121
953.15926
941.97529
927.67434
903.80807
900.9096
900.15197
954.11141
958.29918
961.03623
933.51199
900.06956
900.94888
906.85781
909.06718
954.23827
910.04924
923.00926
950.52797
910.15948
914.24047
917.37288
911.984
938.797
900.00041
900.00097
940.40516
906.66862
916.67627
917.56468
917.5605
907.98016
900.00003
900.00002
910.00743
902.58375
905.59657
906.90051
916.64833
900.00002
900
900.00003
900.01905
900.03285
906.92277
906.49473
909.94812
900
900
900
900
902.76885
907.81873
903.23949
902.30476
900.00048
900
900
900
905.99297
906.5751
904.0157
931.83734
955.73416
961.21034
944.03873
941.36686
933.94819
901.80877
900.6751
910.9934
941.56473
961.20104
961.1588
930.75219
900.05434
900.04899
906.48544
904.47436
953.48629
940.77381
954.64093
951.98377
909.07308
906.39162
916.8768
914.62161
947.3395
903.30728
909.63037
930.76033
915.36138
916.02602
915.46476
918.56979
917.42473
900.00058
900.00072
905.90937
904.71196
918.69093
908.47671
914.89086
900.03788
900.00001
900.00001
900
903.97395
905.9803
907.171
908.52966
900
900
900
900
907.90981
907.63767
904.18879
902.32678
900.00042
900
900
900
904.60035
905.00907
908.37887
939.50012
932.76684
961.10822
949.38409
942.3669
942.12393
901.91074
900.62013
924.32855
926.22675
961.1588
959.2833
931.28369
900.32581
900.04606
908.74953
903.05898
941.17432
961.09592
961.00752
955.51277
906.868
900.1499
910.74216
914.96596
947.2873
918.20981
938.15842
931.04564
930.88992
908.16069
903.61488
917.78062
920.74619
900.00349
902.75563
905.44465
913.06454
920.55859
903.78504
908.51739
900.10236
900.00014
900.0001
900
907.51282
914.26764
905.97983
903.80221
900.00299
900
900
900
908.11714
908.47528
903.46635
901.5738
900.00004
900
900
900.00011
903.38137
904.14992
919.16736
940.77355
926.37378
960.85035
950.05676
939.98531
947.92668
903.99228
900.20936
925.98453
926.76713
961.09624
943.75595
936.33124
908.27024
900.03345
904.65144
902.53739
926.40771
961.05806
960.99708
960.94673
900.91073
900.03452
903.75783
911.40406
946.46552
936.30875
947.25127
949.27462
923.03371
908.09129
900.11336
914.35295
912.96762
901.29639
905.53751
915.029
920.4957
920.53662
901.26073
901.53468
900.0005
900.00017
900.00893
900.00016
904.24365
913.92653
903.95726
900.30467
900.00185
900.00001
900.00004
900.00001
904.40819
908.11661
903.90267
900.34031
900
900
900
900.00001
901.53803
905.10653
938.86573
942.73709
926.32823
960.93055
948.66302
932.33287
951.33493
914.31115
900.1943
931.52459
926.62417
959.82429
941.74332
939.43871
944.83118
900.02686
900.17866
901.91532
925.22737
961.02224
960.95241
960.93629
911.91772
900.74659
900.22366
903.11447
937.52812
957.75135
941.99724
960.49863
908.885
907.53087
900.12617
909.65989
910.71575
908.06151
905.61849
939.85354
918.53492
920.5537
900.55497
900.00071
900.0006
900.00061
900.00245
902.90891
904.92546
911.28172
902.83515
900.0006
900.00058
900.00003
900.00001
900.00033
901.64854
905.41261
903.51463
900.00181
900
900
900
900.00001
900.31008
905.39405
950.52668
937.06089
926.31927
961.11816
948.50287
925.56043
951.33388
933.66953
917.88011
936.26012
926.3189
960.58475
940.33349
925.53359
951.33197
900.02198
900.096
917.03552
941.75503
961.08626
961.02227
954.80886
947.40896
900.78625
900.09282
905.27237
939.65133
961.07727
946.88038
960.58358
914.94266
902.23672
900.09154
904.1306
918.2087
925.34021
910.65798
960.12317
914.26876
911.69178
900.35219
900.13889
900.38131
900.05868
900.44583
925.88127
909.14522
909.83456
901.40146
900.0004
900.00001
900.00013
900.00019
900.26268
902.52794
901.82083
900.97809
900.00001
900
900
900
900.00012
900.25588
903.97473
941.1738
946.51626
941.15611
961.11833
940.56358
933.94947
945.74942
946.39553
926.18122
938.13891
926.31052
961.11164
932.79283
924.45714
943.55532
908.84385
904.1111
945.56272
959.22072
961.09121
961.08211
946.43751
950.33933
900.03918
900.19543
913.57173
955.95275
961.08096
960.69208
960.75289
938.80703
900.03117
900.10093
903.42721
928.83211
954.00426
932.86592
960.59828
916.06124
900.7068
900.28363
900.07877
901.04586
911.39789
906.9998
950.85355
909.13695
904.69118
900.53401
900.00008
900.0001
900.00293
900.64826
913.18177
904.38579
900.88039
900.08832
900.00004
900.00001
900.00002
900.03284
900.41137
900.55608
900.30915
935.79847
946.79201
959.02127
961.11165
937.57332
939.57602
934.88943
946.35541
915.20578
922.26215
926.92978
961.02202
929.27511
924.44411
926.49261
932.60071
920.31563
930.09438
957.15844
961.08262
959.75201
955.80243
955.79985
908.59939
902.22805
934.11038
961.0785
961.08214
961.08263
960.87307
947.70801
900.02817
900.269
908.43003
945.54396
959.63303
929.61631
960.79231
923.07198
900.02351
900.14627
901.07058
904.14922
916.02578
910.88525
960.49801
908.4128
900.17262
900.12256
900.07612
900.00001
900.00487
903.57936
936.28052
904.15154
901.10659
900.17323
900.00001
900
900.00009
900.33132
903.57847
900.71392
900.02245
937.64656
945.97227
957.31661
960.00613
933.35432
942.46249
930.92276
948.72399
918.06313
912.75052
925.00301
940.76403
918.48176
926.65964
917.59614
943.72285
939.36722
911.06598
941.01811
961.08213
942.96995
959.86011
942.83189
937.77021
909.71411
947.68954
960.89975
961.08204
954.26224
960.79198
941.49959
909.70608
901.65332
934.86553
960.53483
945.43558
911.93651
960.71117
917.55782
900.02353
900.10326
914.55994
932.43049
904.82479
907.84045
956.74781
908.46359
900.02351
900.14702
901.30878
901.61202
900.00018
902.6912
933.83055
902.88919
900.70587
900.17526
900.00069
900.0001
900.00001
900.08504
903.03657
900.27588
900.02132
941.67683
935.78366
953.1268
959.95944
925.14747
947.66783
951.81679
942.6332
942.46813
911.08176
923.81736
947.30725
909.80236
919.05141
913.14961
915.72961
942.79175
911.03316
928.90976
958.90827
911.35743
950.80282
912.81514
926.1139
929.34749
933.93801
960.21367
960.83188
916.67836
960.71117
917.00363
934.07363
901.76704
940.76709
960.28971
939.70444
909.20496
940.53257
925.43415
918.86054
900.00439
920.04334
960.19839
908.77774
902.75544
931.61269
916.42329
903.29185
900.02777
904.33774
923.89836
900.28341
901.23594
913.67771
905.63283
900.47702
900.05873
900.12095
901.00534
900.00823
900.00001
900.1724
900.10927
900.0586
932.8704
931.85944
956.47194
959.89782
921.66124
934.05146
967.63403
924.96992
929.23154
911.03114
919.37766
954.47574
906.99683
910.29137
927.19029
906.61364
942.7946
911.0189
923.2622
920.60449
900.69533
911.15435
905.53945
930.87037
942.70228
930.61357
960.24811
944.4534
900.13871
920.74659
905.30655
940.60557
911.24915
937.05265
960.23205
935.86951
908.08251
910.22586
919.90037
941.60438
900.0072
917.50213
960.24023
913.21072
901.91591
904.62353
929.81321
929.79195
900.00798
905.41947
958.00325
903.20291
900.30495
901.30536
923.24874
904.64201
900.00716
900.44516
919.90091
900.84176
900.00003
900.01913
906.92439
900.95622
927.36214
952.67662
957.78545
957.93218
920.23466
917.97733
967.66461
943.91958
909.8765
921.62691
922.3375
946.36433
905.39113
900.93815
943.95525
930.59296
906.27784
908.7739
923.37149
905.29664
900.07167
900.09603
906.84232
922.82189
938.10808
921.72378
960.24878
927.30756
900.04853
900.09845
905.01507
929.96277
932.40179
925.74434
960.24934
928.19617
905.31217
900.0445
913.592
942.19826
910.59421
911.22663
960.21731
911.70943
902.07869
900.00578
929.50875
942.13823
900.00831
905.18418
960.22381
907.76187
900.11614
900.0015
932.62917
928.02452
900.00723
901.16925
953.44472
903.31809
900.00006
900.00195
919.59689
909.63082
915.65081
954.32332
956.72999
951.51425
920.86924
915.8044
968.94786
943.39135
903.35703
923.16002
922.77377
933.72556
903.48352
901.52879
968.9979
926.0401
900.14069
904.27836
920.9233
903.13834
900.05673
902.03769
931.59758
913.90442
927.66227
911.15751
960.24712
914.35803
900.0111
900.23285
904.858
923.30772
931.35268
913.15303
960.24878
915.19029
901.26916
900.01578
909.71364
942.19846
903.33164
906.35875
960.24826
909.19725
902.05426
900.0015
923.43225
942.19826
900.00763
903.14118
960.17148
907.25723
900.25365
900.00008
932.71978
932.80198
900.00752
901.0224
952.83687
903.45256
900.00005
900.00001
925.76864
915.4502
914.76949
950.59815
956.83006
948.70806
921.90505
916.26057
969.05019
945.92385
901.14949
917.72535
931.55119
921.54355
900.34483
905.16864
969.04972
928.8342
900.09125
900.05168
903.04886
900.94014
900.02167
909.65856
943.07158
917.35085
922.46143
903.94679
928.73302
903.586
900.00778
900.01236
903.52011
917.65162
929.67907
908.48155
944.95663
904.35586
900.0018
900.02955
912.82882
942.19826
900.06735
911.49184
957.00185
905.68537
901.55269
900.36976
928.76896
942.19848
900.20823
904.19377
960.00642
903.60107
900.31151
900.00028
934.31403
927.51092
900.00775
903.06526
957.43811
902.93156
900.00005
900.0004
920.19163
911.52291
919.73739
949.04726
956.83158
948.70469
923.35732
915.45313
969.04972
948.13664
901.50075
914.23929
928.32519
911.54435
900.00184
907.48568
969.05372
926.01828
902.2171
900.00149
900.0265
900.10664
900.004
911.61457
950.12261
916.72212
907.05477
900.02954
902.58339
900.03095
900.00374
900.00389
902.65024
910.3658
929.30637
906.88061
912.72332
900.12848
900.00103
900.03559
914.05093
940.9109
909.65169
922.08374
929.83423
901.865
900.34178
901.17497
935.16409
941.67426
905.1527
916.8115
936.1813
902.15076
900.18982
900.00185
934.45897
918.60788
905.35602
907.7629
935.56389
902.76619
900.00003
900.00445
911.70409
907.05353
930.0217
946.85318
956.82297
948.61518
925.23441
916.21977
969.05732
944.29115
901.6053
913.10069
926.95456
907.16491
900.00003
905.81473
969.04972
921.17006
908.15556
900.00079
900.03627
900.00555
900.00726
906.90105
952.27807
916.98326
906.47289
900.00149
900.00214
900.00009
900.0028
900.11013
901.99205
904.92962
907.24789
910.16151
900.14995
900.00024
900.00094
900.02769
910.79642
936.8108
912.44294
920.76368
902.25743
900.36204
900.00105
900.63958
935.01745
931.04235
911.53825
920.64808
901.39563
901.99207
900.04367
900.00371
931.83628
910.67532
914.45724
914.22068
902.21138
902.84318
900.00003
900.02448
903.45972
903.40056
936.18726
935.04214
956.81432
948.4157
927.01168
917.91893
968.85995
944.0213
902.93364
909.47159
924.63919
906.06873
900
904.49599
969.05731
914.90183
920.89205
900.00061
900.01293
900
900.00351
905.72115
968.335
913.38606
904.97334
900.01657
900.00005
900
900.00094
900.64768
932.8683
907.86393
901.79196
906.73394
900.00016
900.00002
900.0005
900.05595
905.7512
921.24966
907.93106
919.75394
900.00178
900.04586
900.00052
900.31002
924.88844
909.72453
909.4907
920.50662
900.01231
901.11429
900.0033
900.02508
924.10216
903.5094
912.64509
920.2558
900.03482
901.41912
900.00003
900.08416
903.62214
901.04732
937.59303
933.61237
956.79744
947.52849
929.45234
919.35992
966.43726
955.19787
905.89613
904.45787
924.59945
905.22637
900
903.86383
968.76026
942.46046
924.1845
900.00045
900.00019
900
900
905.40573
968.5973
916.91868
906.35813
900.06989
900
900
900
900.90132
962.85641
914.09796
901.77354
901.21377
900.00001
900.00001
900.0001
900.01716
918.4597
919.60762
901.43696
913.10289
900.00006
900.00343
900.00049
900.15131
901.4275
906.77956
903.92876
920.36297
900.00019
900.09007
900.003
900.17631
905.02205
900.63313
904.47703
918.89456
900.03178
900.00402
900.00053
900.14116
903.02995
900.19953
936.28359
942.09259
956.76969
945.81956
932.33456
918.22182
957.61832
969.66899
910.66989
905.65376
924.21316
904.07234
900
900.06211
965.8833
970.99246
920.11763
900.00025
900
900
900
903.76516
954.11266
942.82295
909.39042
900.09009
900
900
900
900.7839
945.90628
922.35517
902.24824
900.01758
900
900
900
900.00541
911.26074
923.41211
900.06843
902.89654
900
900.00011
900.00142
900.15139
900.89322
912.99205
900.74479
911.76858
900.00006
900.00019
900.0082
900.28229
900.03819
900.70266
900.38381
908.96546
900.04563
900.00011
900.00288
900.12224
900.83665
900.01631
932.42104
951.27191
956.75511
944.18229
935.81386
919.56384
960.31418
963.25059
909.57907
910.11199
921.51452
902.66459
900
900
964.20438
971.01503
912.84243
900.00027
900.01056
900
900.00045
901.64073
933.64958
968.84086
913.02897
900.00002
900
900
900.00016
900.52678
914.53096
933.17795
903.53917
900
900
900
900
900.02134
906.86803
926.02259
900.03827
900.05413
900
900
900.00307
900.19517
901.96383
917.01904
900.03181
900.49431
900.00158
900.00001
900.02043
900.28229
900.03256
900.95695
900.0128
900.23971
900.0587
900.00001
900.00355
900.04978
900.00299
900.00092
930.46197
950.94934
956.7504
943.28811
939.95938
924.35202
967.86764
964.9807
907.15857
911.20261
915.89627
901.47392
900
900
957.15102
971.02112
909.18203
900.00006
900.01364
900
900.00027
900.55127
931.86421
971.01849
912.66263
900
900
900
900.00048
900.20499
905.15255
950.19406
903.44919
900
900
900
900
900.11454
907.36177
930.9915
900.01261
900.01067
900
900
900.00308
900.38844
905.3774
915.43434
900.01822
900.0358
900.0084
900
900.02116
900.18988
900.0566
900.57921
900.02048
900.0212
900.09061
900
900.00179
900.00081
900.00218
900.00143
931.29019
947.55295
956.12468
942.6095
943.09562
929.30137
973.13026
971.37552
902.81778
908.99846
911.22397
901.04689
900.27417
900.00127
950.23144
959.01405
911.0157
900.00002
900.0044
900
900
900.18486
928.22381
971.02352
908.92366
900
900
900
900.0004
900.02092
908.51307
968.43206
902.22814
900
900
900
900
900.38744
910.42
945.12653
900.02636
900.02969
900
900
900.00181
901.04517
911.68624
914.89261
900.12032
900.15341
900.01735
900
900.01355
900.07612
900.40342
900.14354
900.06882
900.0706
900.09808
900
900.00008
900.00006
900.00203
900.00166
934.2857
944.83702
955.97247
941.72896
944.83548
932.01465
973.12265
971.93646
902.15882
905.16353
909.786
900.97545
901.35153
900.00258
939.92447
953.08365
916.39344
900
900
900
900
900.24066
928.29389
968.97971
905.12487
900
900
900
900.00011
900.00056
913.99405
963.89229
901.62754
900
900
900
900.00002
900.5928
915.17191
957.83977
900.04824
900.04159
900
900
900.00044
901.99488
915.139
914.48002
900.18436
900.26261
900.01961
900
900.00449
900.12542
902.24724
900.00899
900.09453
900.25295
900.09673
900
900.00003
900.00004
900.0161
900.00065
937.92369
944.91205
955.91818
940.49799
945.83353
933.28039
967.79429
978.77192
902.09937
902.8049
909.60155
900.70493
902.67698
900.00329
918.8739
958.81497
919.82931
900
900
900
900
900.07805
921.42118
954.01119
904.04143
900
900
900
900.00002
900.0053
914.01153
950.093
901.40407
900
900
900
900.00017
900.57517
917.13775
957.69991
900.00483
900.03153
900
900
900.00071
902.46362
914.73579
914.17639
900.12247
900.27028
900.01701
900
900.00373
900.28071
903.45141
900.01378
900.08933
900.27409
900.08033
900
900.00011
900.00004
900.13168
900.00026
941.43633
946.00152
955.86086
939.12022
946.48271
933.85382
960.32798
982.43503
902.06226
902.05106
909.48681
900.06624
903.22685
900.00087
910.58239
970.99513
921.21631
900.00002
900.00005
900
900
900
909.99923
955.96697
904.7729
900.00122
900
900
900
900
911.65241
916.95015
901.32292
900
900
900
900
900.35406
915.24568
955.79058
900.00204
900.00709
900
900
900
902.77621
911.69947
912.41171
900.03328
900.21556
900.00835
900
900.00527
900.75962
902.1868
900.06282
900.06102
900.27405
900.04706
900
900.0004
900.00003
900.00004
900.00058
945.6272
946.74322
955.80066
937.81593
947.05419
933.85658
962.59714
984.00689
902.68882
901.52723
909.11382
900
903.33754
900.00002
911.55106
970.92015
924.39341
900.00002
900.00001
900
900
900
912.08391
958.8916
905.6387
900.00151
900
900
900
900
908.81567
936.14756
901.79957
900
900
900
900
900.49371
914.49649
956.63349
900.00011
900
900
900
900.0008
903.1928
909.6253
914.82621
900.0014
900.07912
900.00114
900
900.01894
901.69202
901.59521
900.01229
900.01231
900.22438
900.01581
900.00006
900.00126
900.00003
900.00881
900.00013
949.60631
945.93788
955.64422
937.04092
947.07689
934.14005
967.72649
984.52422
905.03678
900.87339
908.1608
900
903.4574
900.00191
913.49096
957.92173
926.45971
900.00002
900
900
900
900
921.28588
971.30889
906.39874
900.00047
900
900
900
900.00156
906.81397
961.16274
901.543
900
900
900
900.00015
900.49186
912.58621
963.32304
900.0135
900
900
900
900.02248
903.18025
907.33814
912.2293
900.00024
900.00538
900.00003
900.00001
900.07689
902.05441
901.58405
900
900.00018
900.02164
900.00228
900.00022
900.00334
900.04662
900.18071
900
953.99988
944.06667
955.35284
936.62459
947.08942
934.41937
968.34419
986.94015
907.52009
900.23874
906.94988
900
903.24684
900.00321
913.76117
957.24598
926.58043
900.00002
900.00017
900
900
900.00221
922.79169
971.55079
906.74666
900.00002
900
900
900
900.00445
904.61314
961.74584
900.62568
900
900
900
900.0009
900.36524
909.78071
967.29679
900.01537
900
900
900
900.05217
902.18749
903.11731
906.29156
900.00021
900
900
900.00004
900.09759
901.61196
901.02285
900
900
900.00002
900.00009
900.00028
900.00513
900.13067
900.37155
900
958.74546
942.58996
955.25251
936.32626
947.10025
935.02428
967.54822
989.15434
910.72003
900.00005
905.70042
900
902.72389
900.00228
913.63165
964.09208
926.31135
900.00003
900.00049
900