/*--------------------------------*- C++ -*----------------------------------*\
  =========                 |
  \\      /  F ield         | OpenFOAM: The Open Source CFD Toolbox
   \\    /   O peration     | Website:  https://openfoam.org
    \\  /    A nd           | Version:  13
     \\/     M anipulation  |
\*---------------------------------------------------------------------------*/
FoamFile
{
    format      ascii;
    class       volVectorField;
    location    "0.1";
    object      U;
}
// * * * * * * * * * * * * * * * * * * * * * * * * * * * * * * * * * * * * * //

dimensions      [0 1 -1 0 0 0 0];

internalField   nonuniform List<vector> 
51200
(
(0.040145884 0.014396923 0.0095809732)
(0.048256419 0.014902345 0.011852218)
(0.048376788 0.0061756577 0.01205383)
(0.046930986 0.00015179998 0.011925755)
(0.046933617 -0.00014978866 0.011927109)
(0.048382414 -0.0062138534 0.012054198)
(0.048259104 -0.015043619 0.011859322)
(0.040136602 -0.014487988 0.0095394153)
(0.10029921 0.092342883 0.032547688)
(0.11535677 0.056897796 0.041214789)
(0.11536353 0.020367163 0.039045793)
(0.11229456 0.0015201302 0.036273514)
(0.11230029 -0.0015220891 0.036278571)
(0.11537693 -0.020453154 0.039065631)
(0.11536411 -0.05718071 0.041287058)
(0.10028535 -0.092878894 0.032438875)
(0.14292979 0.1014426 0.038274716)
(0.15832592 0.050051631 0.056134932)
(0.15794459 0.018823802 0.053305658)
(0.1542198 0.0011949147 0.048047695)
(0.15422611 -0.001166059 0.048057686)
(0.1579585 -0.018885543 0.05334)
(0.15832997 -0.050255585 0.056258866)
(0.14292137 -0.1019435 0.038087946)
(0.17301189 0.098662833 0.048689344)
(0.18521762 0.041242638 0.07273569)
(0.18443503 0.017541175 0.064631508)
(0.18070569 0.0018878284 0.055843262)
(0.18071157 -0.0018222227 0.055860089)
(0.18444619 -0.017561662 0.064688385)
(0.18521479 -0.04133587 0.072911425)
(0.17301271 -0.09903809 0.048511737)
(0.19363582 0.085097439 0.051798496)
(0.20138945 0.029308203 0.079252077)
(0.20056453 0.015411753 0.067938546)
(0.19725911 0.0027508089 0.057467119)
(0.19726459 -0.0026660885 0.057490506)
(0.20057229 -0.015388376 0.068011799)
(0.20137994 -0.029300545 0.079452528)
(0.19364555 -0.08534797 0.051648684)
(0.20743661 0.070958892 0.056354267)
(0.21039358 0.019627291 0.084456701)
(0.20952576 0.015062196 0.072058797)
(0.20674515 0.0045037889 0.062068094)
(0.20675063 -0.0044145425 0.062092271)
(0.20953112 -0.014993636 0.072129124)
(0.21037941 -0.019526349 0.084654652)
(0.2074564 -0.071132888 0.056271445)
(0.21556911 0.059937731 0.062890031)
(0.21430244 0.016945791 0.08680687)
(0.2140612 0.017023856 0.068766211)
(0.21216623 0.0062459369 0.058056962)
(0.21217201 -0.0062110751 0.058086574)
(0.21406425 -0.016973827 0.068847457)
(0.21428323 -0.016816826 0.087013963)
(0.21559709 -0.060047452 0.062888311)
(0.21939025 0.04847632 0.065858893)
(0.21562104 0.014110118 0.078353675)
(0.2164353 0.02774888 0.059062943)
(0.21525382 0.013599079 0.053148541)
(0.21525865 -0.013607143 0.053173771)
(0.21643366 -0.027668963 0.059127943)
(0.2155931 -0.013923311 0.0785698)
(0.21942113 -0.048646824 0.065962771)
(0.029321776 0.0085488438 -0.0021767841)
(0.037754543 0.010347932 0.00078741157)
(0.037990934 0.00027482218 0.00092682787)
(0.035805662 -0.002792584 0.0004229228)
(0.035810606 0.0028127666 0.00042488713)
(0.037998624 -0.00031654398 0.00092892644)
(0.037757596 -0.01052414 0.00079560153)
(0.029317889 -0.0086763377 -0.002220149)
(0.081106505 0.080879141 0.001664888)
(0.09891362 0.045852785 0.015294992)
(0.098701467 0.005358853 0.011908758)
(0.093707395 -0.0057501311 0.0068263327)
(0.093718062 0.0057964316 0.0068368062)
(0.098720597 -0.0054481368 0.011941378)
(0.098928834 -0.046219977 0.015379475)
(0.081114719 -0.081514455 0.0015515145)
(0.12323325 0.080907264 -0.0024488867)
(0.14280129 0.028031115 0.026568357)
(0.14131634 -0.0042803696 0.020505073)
(0.13498762 -0.0090438398 0.010225952)
(0.13499795 0.0091368058 0.010248086)
(0.14132931 0.0042168619 0.020568566)
(0.14281046 -0.02832777 0.026718702)
(0.1232457 -0.081510848 -0.0026589435)
(0.15718649 0.071239704 0.0071053584)
(0.17428157 0.0096843313 0.047386963)
(0.17137415 -0.011019033 0.032604037)
(0.16463447 -0.0099207098 0.015776671)
(0.164642 0.010050091 0.015814161)
(0.17137369 0.010993051 0.032708759)
(0.17427596 -0.0098703944 0.047613546)
(0.15719383 -0.071707891 0.0068892497)
(0.18414241 0.051014537 0.013694991)
(0.1972817 -0.010362478 0.060299647)
(0.19343997 -0.016231745 0.038727827)
(0.18681704 -0.0095350503 0.017586455)
(0.18682267 0.0096677217 0.01763953)
(0.19342924 0.016239766 0.038868491)
(0.19726405 0.010283405 0.060575382)
(0.18414073 -0.051351775 0.013501572)
(0.2050258 0.03105854 0.024965239)
(0.21375362 -0.025443954 0.072733752)
(0.20937439 -0.017080729 0.046568138)
(0.20310392 -0.0072445939 0.024155412)
(0.2031091 0.0073494125 0.024218038)
(0.20935698 0.017112228 0.046725425)
(0.21372622 0.025465678 0.073026272)
(0.20501245 -0.031322191 0.024859215)
(0.22042739 0.015961864 0.039982697)
(0.22548917 -0.029389915 0.082058796)
(0.2216625 -0.012727911 0.046440559)
(0.21629799 -0.0040555884 0.022252276)
(0.21630531 0.0040551984 0.022327409)
(0.22164423 0.012699682 0.046623954)
(0.22545422 0.029438566 0.082375474)
(0.22039888 -0.016176638 0.03999107)
(0.2315885 0.003245758 0.05163609)
(0.23417246 -0.029647093 0.07735349)
(0.23051536 0.0040626739 0.037281836)
(0.22577681 0.0062935817 0.018395766)
(0.2257854 -0.0064103894 0.018469051)
(0.23049461 -0.0041211811 0.037455169)
(0.23413247 0.029743312 0.07769408)
(0.23154297 -0.0035452165 0.051793214)
(0.013025354 0.0077109217 -0.0035420876)
(0.019453778 0.0081744161 -0.00040857093)
(0.020306437 -0.0027708924 -0.00016816461)
(0.019190548 -0.0044023484 -0.00073968796)
(0.01919151 0.0044244913 -0.00073720829)
(0.020304261 0.0027204707 -0.00016534242)
(0.019451493 -0.008371118 -0.00040047384)
(0.013034178 -0.0078374167 -0.0035899967)
(0.043365126 0.082389924 -0.0026879402)
(0.058830395 0.040915307 0.012165664)
(0.060245369 -0.0026334785 0.0082491041)
(0.057524566 -0.009893369 0.0021382689)
(0.057525076 0.0099434914 0.0021526087)
(0.060239407 0.0025252552 0.0082883943)
(0.058830399 -0.041347876 0.012254185)
(0.043400447 -0.083016321 -0.0028098275)
(0.072208129 0.07725682 -0.010720076)
(0.090798914 0.015781676 0.02137065)
(0.091461161 -0.017495285 0.013868678)
(0.087854309 -0.015176238 0.0011764475)
(0.087847451 0.015261246 0.0012067323)
(0.091428753 0.017397214 0.01394943)
(0.090769553 -0.016172012 0.021531848)
(0.072236051 -0.077843603 -0.010957251)
(0.099253662 0.06182654 -0.0029888093)
(0.1177294 -0.0090967559 0.041715311)
(0.11740686 -0.028028136 0.023661619)
(0.1134654 -0.017288749 0.002629242)
(0.11344886 0.017389178 0.0026786737)
(0.11733986 0.027948693 0.023796558)
(0.11765635 0.0087949777 0.041965382)
(0.099249305 -0.062287408 -0.0032373337)
(0.12420873 0.035381899 0.0025211432)
(0.14166277 -0.034709901 0.054319999)
(0.14105383 -0.035682634 0.027506304)
(0.13721243 -0.01754013 0.00037584747)
(0.13718887 0.017620297 0.00044738272)
(0.14096011 0.035618956 0.027693841)
(0.14155182 0.034499743 0.054634683)
(0.12416211 -0.035722456 0.0022844533)
(0.14674523 0.010049517 0.014289302)
(0.16296596 -0.053553006 0.067307008)
(0.16268026 -0.037466931 0.033825963)
(0.15919648 -0.015260494 0.0041473677)
(0.1591684 0.015286988 0.0042354628)
(0.16256703 0.037410094 0.034045462)
(0.16282254 0.053435609 0.067654072)
(0.14664909 -0.010319882 0.014123458)
(0.16647803 -0.0088618172 0.031135629)
(0.18223766 -0.058728082 0.077496057)
(0.18357695 -0.032530101 0.031738946)
(0.18109743 -0.011561518 -0.00060931235)
(0.18106984 0.011457304 -0.00050106615)
(0.18345765 0.032394881 0.031998078)
(0.18207157 0.058617306 0.077889437)
(0.16632431 0.0086227512 0.031078614)
(0.18379463 -0.023966951 0.044823742)
(0.19996509 -0.058657577 0.072319568)
(0.20239423 -0.01302432 0.020274164)
(0.20056889 0.00045917291 -0.0061814845)
(0.20054135 -0.00071419804 -0.0060740032)
(0.2022701 0.012832708 0.020530575)
(0.1997823 0.058576836 0.072752999)
(0.18358272 0.023622832 0.044924533)
(0.011272351 0.0077075307 -0.0037287274)
(0.016827388 0.0068334839 -0.00042156696)
(0.017686858 -0.0048937244 -0.00022510503)
(0.017133697 -0.005476817 -0.00081295004)
(0.01712808 0.0054950081 -0.00081054849)
(0.017670995 0.0048326568 -0.00022204178)
(0.016814529 -0.0070438164 -0.00041491068)
(0.011288872 -0.0078296743 -0.0037793461)
(0.037441909 0.087245174 -0.003767182)
(0.050991335 0.038983497 0.011779251)
(0.052740652 -0.0077272049 0.0070285963)
(0.051526671 -0.012579126 0.00032119216)
(0.051509676 0.012617878 0.00033651203)
(0.052696854 0.0075944643 0.0070714244)
(0.050961277 -0.039471166 0.011867093)
(0.037493967 -0.08784475 -0.0038879569)
(0.061970373 0.079009279 -0.014442783)
(0.078283503 0.0082225523 0.019256677)
(0.079803472 -0.026309941 0.010026832)
(0.078414329 -0.019240158 -0.0040127055)
(0.078378936 0.019290336 -0.003979202)
(0.079704452 0.026162359 0.010115863)
(0.078191045 -0.0087035204 0.019418547)
(0.06199966 -0.079556733 -0.014707253)
(0.085075837 0.059138263 -0.0085465693)
(0.10159494 -0.021826858 0.038072786)
(0.10286862 -0.03950317 0.016663137)
(0.10171532 -0.022252855 -0.0067553159)
(0.10166006 0.0222876 -0.0066993987)
(0.10270594 0.039344489 0.016812391)
(0.10142077 0.021400624 0.038331272)
(0.085043617 -0.059564982 -0.0088448201)
(0.10684908 0.02702458 -0.0055437741)
(0.12327533 -0.052099632 0.048029005)
(0.12518553 -0.048937693 0.016412883)
(0.1246252 -0.023037017 -0.013823334)
(0.12455504 0.02302534 -0.013743464)
(0.12497257 0.048770901 0.016623261)
(0.1230296 0.051741114 0.048362327)
(0.10674166 -0.027345014 -0.0058471815)
(0.12718821 -0.0037673374 0.0040601285)
(0.14378205 -0.074227829 0.058422445)
(0.14705634 -0.051386142 0.01903845)
(0.14729863 -0.020866183 -0.014289182)
(0.14721763 0.020778059 -0.014190413)
(0.1468058 0.051210473 0.019290165)
(0.14347417 0.073956289 0.058796328)
(0.12699716 0.0035067345 0.0038153545)
(0.14583009 -0.027050011 0.019288793)
(0.16369288 -0.080589395 0.065872803)
(0.1696709 -0.046001865 0.012683368)
(0.17129633 -0.016943027 -0.023937342)
(0.17121267 0.016712998 -0.023817599)
(0.16940624 0.045737707 0.012976196)
(0.16334028 0.080308956 0.066302983)
(0.145548 0.026790313 0.019148636)
(0.16318952 -0.045526671 0.031381059)
(0.18333694 -0.080650395 0.057004384)
(0.19138574 -0.024477379 -0.0028054952)
(0.19391749 -0.0037042829 -0.034421623)
(0.19383093 0.0033079836 -0.034294248)
(0.1911107 0.024137988 -0.0024974482)
(0.18294692 0.080388021 0.057473397)
(0.16281836 0.04513879 0.031403225)
(0.0090149574 0.0081099784 -0.0041160917)
(0.014113378 0.0065034381 -0.00055683833)
(0.015430041 -0.0062461935 -0.00036145787)
(0.01535175 -0.0062779896 -0.00097299243)
(0.015339355 0.006287415 -0.00097012889)
(0.015398242 0.0061709451 -0.00035720425)
(0.014089163 -0.0067231823 -0.00055275826)
(0.0090361626 -0.0082257555 -0.0041686769)
(0.031012559 0.093426564 -0.0044976293)
(0.043730889 0.039753322 0.01217872)
(0.046819008 -0.010856145 0.0068022542)
(0.046881462 -0.014556527 -0.00049121369)
(0.046845927 0.014572057 -0.00047487612)
(0.046731175 0.010690225 0.0068487519)
(0.04366662 -0.040292334 0.012262795)
(0.031071954 -0.09398091 -0.0046135649)
(0.051963753 0.083477395 -0.016704513)
(0.067582977 0.0048424921 0.019408297)
(0.071318116 -0.032258494 0.0088513328)
(0.071874804 -0.022276522 -0.0064800774)
(0.071809228 0.022272097 -0.0064451482)
(0.071144543 0.03204416 0.0089446963)
(0.067419346 -0.0054208221 0.019570231)
(0.051979345 -0.08396643 -0.016995753)
(0.072130475 0.060794764 -0.011140948)
(0.088451841 -0.029198291 0.038541241)
(0.092816214 -0.047491013 0.014377067)
(0.094183213 -0.025961967 -0.011251917)
(0.09408718 0.025904741 -0.011194794)
(0.092549818 0.047229139 0.014529013)
(0.088165284 0.02863208 0.038809327)
(0.072052331 -0.061176404 -0.011490254)
(0.091646309 0.024692904 -0.0089193564)
(0.10861684 -0.063247598 0.047746436)
(0.1144658 -0.058306347 0.012105906)
(0.11692223 -0.027131349 -0.020989478)
(0.11680293 0.026999585 -0.020907156)
(0.11412569 0.05800678 0.012326344)
(0.10822378 0.06272208 0.048097643)
(0.091460956 -0.024987372 -0.0092984066)
(0.11046614 -0.0099817766 0.00023692657)
(0.12852416 -0.088121625 0.057220881)
(0.13653196 -0.061276088 0.012783789)
(0.14020458 -0.025011328 -0.023718744)
(0.14006836 0.024785054 -0.023616181)
(0.13613645 0.060948016 0.013053319)
(0.12803969 0.087679661 0.057616455)
(0.1101639 0.0097407421 -0.00010878035)
(0.1283584 -0.036276947 0.015389229)
(0.14871567 -0.095479072 0.06336754)
(0.16008385 -0.055459704 0.0039911855)
(0.16548511 -0.020840377 -0.036309743)
(0.16534337 0.02047478 -0.036186255)
(0.15966542 0.055030461 0.0043095352)
(0.14816662 0.095017446 0.063822282)
(0.12793329 0.036007911 0.015137205)
(0.14575397 -0.057102446 0.027055839)
(0.16946506 -0.095707238 0.051697286)
(0.18343386 -0.031939797 -0.015166666)
(0.19007285 -0.0064077539 -0.050149784)
(0.18992595 0.0058702676 -0.050018116)
(0.18299654 0.031411245 -0.014842371)
(0.16886116 0.095250842 0.052180109)
(0.14521112 0.056689367 0.026967241)
(0.008433679 0.0085918845 -0.0043833215)
(0.013354361 0.0063991412 -0.00058137285)
(0.015071488 -0.0073814785 -0.00040562163)
(0.015405334 -0.0069815407 -0.00105073)
(0.015385862 0.0069800304 -0.0010479155)
(0.015019779 0.0072952328 -0.00040170664)
(0.013309969 -0.0066225933 -0.00057927799)
(0.0084641269 -0.0087031968 -0.0044390116)
(0.028925581 0.09953508 -0.0048996059)
(0.041338021 0.041082604 0.012871413)
(0.045640572 -0.013400769 0.0069273901)
(0.046832967 -0.016272597 -0.00094282988)
(0.046778425 0.016259698 -0.00092728021)
(0.045499972 0.013211515 0.0069714873)
(0.041213071 -0.041657455 0.012952002)
(0.028993734 -0.10004558 -0.0050106872)
(0.048522064 0.088266416 -0.018304366)
(0.064115268 0.0026148493 0.020170461)
(0.069902484 -0.03723846 0.0084918211)
(0.072187182 -0.024913048 -0.0081137032)
(0.072092635 0.024843219 -0.0080805782)
(0.069648437 0.036963334 0.0085804221)
(0.063857454 -0.0032798853 0.02032732)
(0.048525135 -0.088701687 -0.018627989)
(0.0674883 0.063221908 -0.012814544)
(0.084288619 -0.034909028 0.039959745)
(0.091487741 -0.054218212 0.013472347)
(0.095068147 -0.029169299 -0.014340608)
(0.094935304 0.0290049 -0.014287599)
(0.091116879 0.05384784 0.013613507)
(0.083872468 0.034200472 0.040222455)
(0.067365871 -0.063569224 -0.013225996)
(0.085988006 0.023634044 -0.011075889)
(0.10400183 -0.072277309 0.048862693)
(0.11333897 -0.066211816 0.009788047)
(0.11838572 -0.030650349 -0.026108823)
(0.11822383 0.030382429 -0.026031666)
(0.11287751 0.065768436 0.0099950262)
(0.103458 0.071572627 0.049210462)
(0.085728501 -0.023911406 -0.011553336)
(0.10402349 -0.014512789 -0.0021104878)
(0.12372023 -0.099527498 0.057857914)
(0.13572918 -0.069603012 0.0090820599)
(0.14227534 -0.02851654 -0.030499378)
(0.1420924 0.028138211 -0.030402586)
(0.13520019 0.069111786 0.00934157)
(0.12307066 0.098898578 0.058247164)
(0.10361857 0.01428945 -0.0025996242)
(0.12140709 -0.043506159 0.013178634)
(0.14396201 -0.10763083 0.063121931)
(0.1596346 -0.063444604 -0.0019169907)
(0.16806761 -0.02401388 -0.045392698)
(0.16787702 0.023506905 -0.045276588)
(0.15907571 0.062850147 -0.0016071045)
(0.14323823 0.10697421 0.063564254)
(0.12085254 0.043230518 0.012760368)
(0.13853639 -0.066391412 0.024706852)
(0.16496987 -0.10794445 0.049186272)
(0.18347585 -0.038046895 -0.024101603)
(0.19327208 -0.0083528651 -0.061909014)
(0.19307504 0.0076767585 -0.061784689)
(0.18289291 0.03733256 -0.023793272)
(0.16418084 0.10728123 0.049638013)
(0.137843 0.065961459 0.024447776)
(0.0078670871 0.0091373526 -0.0046489339)
(0.012715157 0.0065484807 -0.00062629694)
(0.014920223 -0.0082773467 -0.00044681829)
(0.015700748 -0.0075849315 -0.0011290381)
(0.015677614 0.0075629908 -0.0011260658)
(0.014868391 0.008175544 -0.00044639524)
(0.012678443 -0.0067410501 -0.00062660837)
(0.0079091729 -0.0091962203 -0.004698318)
(0.026930682 0.10505236 -0.0052438803)
(0.039383803 0.042727401 0.013575437)
(0.045134439 -0.015424276 0.0071835298)
(0.047536672 -0.017744834 -0.0012193798)
(0.047471395 0.017678019 -0.0012044961)
(0.044986808 0.015171169 0.007217619)
(0.039266161 -0.04341583 0.013633739)
(0.027025395 -0.10554264 -0.0053338978)
(0.045513351 0.092828693 -0.019531149)
(0.061723531 0.0012743674 0.021172692)
(0.069872585 -0.041336513 0.0085777962)
(0.073963343 -0.027185685 -0.0091912617)
(0.073853355 0.027013813 -0.0091589619)
(0.069602743 0.040957628 0.0086576398)
(0.061456619 -0.002196056 0.021297809)
(0.04554193 -0.093220991 -0.019893419)
(0.063773888 0.065967325 -0.013826058)
(0.081931892 -0.039193487 0.041907698)
(0.092268958 -0.059806867 0.013447571)
(0.09809556 -0.031928379 -0.016355007)
(0.097943776 0.031619379 -0.01630481)
(0.091872265 0.059294998 0.013579457)
(0.081501364 0.038166487 0.042138196)
(0.063680305 -0.066241433 -0.014340487)
(0.081826661 0.023523382 -0.012161814)
(0.10185623 -0.079404312 0.051009229)
(0.114874 -0.072803418 0.0089504834)
(0.1224608 -0.033657272 -0.029514941)
(0.1222766 0.033221211 -0.029442436)
(0.11437689 0.072196049 0.0091521976)
(0.10128681 0.07836702 0.051318208)
(0.081583712 -0.023754258 -0.012802283)
(0.099645756 -0.017488018 -0.0029555162)
(0.12192351 -0.1087063 0.06008328)
(0.13793185 -0.076535394 0.0074632412)
(0.14718022 -0.031478197 -0.034944035)
(0.14697198 0.030923181 -0.034854201)
(0.13735871 0.075871581 0.0077169141)
(0.1212356 0.10777314 0.060431345)
(0.099240248 0.017300201 -0.003665825)
(0.11705116 -0.048705637 0.012911237)
(0.14257128 -0.11747521 0.065098256)
(0.1622741 -0.069997741 -0.004962829)
(0.17339007 -0.026653371 -0.051458576)
(0.17317087 0.025989212 -0.051352613)
(0.16166046 0.069240017 -0.0046625582)
(0.14179333 0.11654374 0.065493724)
(0.11647498 0.048428667 0.012241922)
(0.13431451 -0.073289894 0.02476362)
(0.16398364 -0.11783399 0.049640657)
(0.18649736 -0.042888527 -0.029340756)
(0.19889657 -0.0098982738 -0.069948253)
(0.19866848 0.0090789822 -0.069835134)
(0.18585037 0.041996628 -0.029038778)
(0.16312403 0.11691375 0.050029214)
(0.13358143 0.072839884 0.024253274)
(0.0075839283 0.0095938737 -0.0048350004)
(0.012393839 0.0066966949 -0.00065025513)
(0.015161736 -0.0090137038 -0.00047995339)
(0.016364418 -0.0080980777 -0.0011893464)
(0.016337826 0.0080712793 -0.0011866791)
(0.015109047 0.0089155451 -0.00047760595)
(0.012352654 -0.006873839 -0.00065239922)
(0.0076180669 -0.0096186712 -0.0048916125)
(0.025730946 0.10984983 -0.0054046328)
(0.03822904 0.044461844 0.01417272)
(0.045588308 -0.0170054 0.0074024064)
(0.049163826 -0.018989459 -0.0014246928)
(0.049089892 0.018906529 -0.0014119772)
(0.045441429 0.016789686 0.0074338294)
(0.038089349 -0.045014012 0.014240032)
(0.025727675 -0.11004541 -0.0055153727)
(0.043797563 0.097326023 -0.02005342)
(0.060647238 0.00077132103 0.022047434)
(0.071404722 -0.044657496 0.0086927549)
(0.077247173 -0.029103905 -0.010023915)
(0.077127619 0.028889686 -0.0099971855)
(0.071137706 0.044286532 0.0087593048)
(0.06036634 -0.0015029147 0.02217723)
(0.043666226 -0.097227253 -0.020555397)
(0.06178021 0.069199317 -0.013982924)
(0.08139427 -0.042108307 0.04366505)
(0.095120456 -0.0644101 0.013544743)
(0.10311951 -0.034262705 -0.017908101)
(0.10295887 0.033876356 -0.017868611)
(0.094736053 0.063868304 0.013648527)
(0.080965614 0.041207625 0.043875743)
(0.061507832 -0.068973426 -0.014695595)
(0.079734207 0.024513016 -0.012254846)
(0.10194877 -0.084726645 0.053066323)
(0.11881982 -0.078267893 0.0085017152)
(0.12883163 -0.036199774 -0.032153771)
(0.12863795 0.035663806 -0.032095323)
(0.1183381 0.077604228 0.008659488)
(0.10138492 0.08374635 0.053335716)
(0.079314288 -0.024253738 -0.013143262)
(0.097619248 -0.018900021 -0.0027349463)
(0.12267141 -0.1158214 0.062385359)
(0.14272423 -0.082289793 0.0065264308)
(0.15448816 -0.033974674 -0.038365323)
(0.15426892 0.033312316 -0.038291889)
(0.14216485 0.081544563 0.00672878)
(0.12198935 0.11489571 0.062667401)
(0.09705839 0.019177577 -0.0037463761)
(0.11526371 -0.052101838 0.013676109)
(0.14390086 -0.12523145 0.067392994)
(0.16748855 -0.075395798 -0.0069333384)
(0.18099446 -0.028864544 -0.056135034)
(0.18076009 0.028109027 -0.056047107)
(0.16687702 0.074554675 -0.0066922565)
(0.14311871 0.12426195 0.067696371)
(0.11456308 0.052211876 0.01268488)
(0.13278674 -0.078257382 0.025854241)
(0.16573238 -0.12567509 0.050874797)
(0.19190825 -0.046827778 -0.033024227)
(0.20653425 -0.011173411 -0.07617285)
(0.20628881 0.010274726 -0.076077974)
(0.1912552 0.04583803 -0.032786939)
(0.16486429 0.1246817 0.051142614)
(0.13195634 0.078119111 0.025024395)
(0.0074474156 0.0097005767 -0.00507871)
(0.012131332 0.0068972616 -0.00064679133)
(0.016175511 -0.0099108372 -0.00060977397)
(0.017254465 -0.0086450359 -0.0012527115)
(0.017215811 0.0085914709 -0.001250277)
(0.016099484 0.009723043 -0.00059668922)
(0.012050276 -0.0070680226 -0.00067429967)
(0.0073717298 -0.0098603254 -0.005072525)
(0.025098401 0.11268402 -0.0057758972)
(0.037240341 0.045595713 0.014703979)
(0.047059927 -0.018868757 0.0073420967)
(0.051303688 -0.020241132 -0.0016490101)
(0.051200667 0.020097053 -0.0016350634)
(0.046850232 0.018646239 0.0073922233)
(0.037040003 -0.046331864 0.014726766)
(0.024846672 -0.11349513 -0.0057165072)
(0.042936577 0.10020337 -0.020738124)
(0.059942683 0.00030925729 0.022811616)
(0.074082714 -0.047977974 0.0085083137)
(0.081336145 -0.030906485 -0.010782313)
(0.081180993 0.030599244 -0.010755222)
(0.073747484 0.047563454 0.0085855051)
(0.059648012 -0.0012001825 0.022928427)
(0.042547163 -0.10062075 -0.02095601)
(0.060733938 0.071639464 -0.01422234)
(0.081443801 -0.044384136 0.045171114)
(0.099225908 -0.068678522 0.013359203)
(0.10919512 -0.036369057 -0.019257556)
(0.10899877 0.035868067 -0.019219838)
(0.098787945 0.06805181 0.013471739)
(0.081048679 0.043294493 0.045371905)
(0.060281205 -0.071736301 -0.014674566)
(0.078651556 0.025389366 -0.012228596)
(0.1028333 -0.088829539 0.05487395)
(0.12407293 -0.083092976 0.0079462453)
(0.13639604 -0.03843336 -0.034352629)
(0.13616846 0.03777253 -0.0342981)
(0.12354803 0.082320576 0.0081103743)
(0.10232139 0.087691458 0.055144828)
(0.078134896 -0.025423313 -0.012924542)
(0.096677896 -0.019724685 -0.0023409049)
(0.12440289 -0.12130223 0.064473352)
(0.14884007 -0.087235255 0.005698118)
(0.16302784 -0.036135442 -0.04116081)
(0.16277723 0.035345646 -0.04109245)
(0.14824359 0.086369119 0.0058952783)
(0.12375258 0.12024498 0.06476496)
(0.096073647 0.01976768 -0.0031923237)
(0.11463412 -0.054359077 0.014647911)
(0.14635105 -0.13119582 0.069594995)
(0.17396969 -0.079957243 -0.0084550718)
(0.18974134 -0.030760367 -0.059862186)
(0.18947613 0.029888674 -0.059781972)
(0.17331924 0.078992866 -0.0082289788)
(0.14557354 0.13011609 0.069910388)
(0.11392915 0.05431319 0.013751084)
(0.13248801 -0.081699587 0.027213688)
(0.16866094 -0.13168488 0.052373452)
(0.19847178 -0.050156412 -0.035801337)
(0.21515203 -0.012297645 -0.081074966)
(0.21487922 0.011301185 -0.080985588)
(0.19778559 0.049051205 -0.035574954)
(0.16778962 0.13059117 0.052644853)
(0.13168005 0.081479581 0.026418773)
(0.0074611996 0.010071825 -0.0051877058)
(0.012133202 0.0067614773 -0.0007196131)
(0.018430569 -0.011249313 -0.00063176555)
(0.01823653 -0.0095128883 -0.0013516542)
(0.018198911 0.0094061862 -0.0013472413)
(0.018375639 0.011083223 -0.00063849386)
(0.0120176 -0.0071766035 -0.00070379089)
(0.0072645928 -0.010117409 -0.0052692534)
(0.024618165 0.11543692 -0.0058678949)
(0.036853428 0.044575177 0.015172926)
(0.049999899 -0.023239578 0.0075427429)
(0.053625976 -0.021927625 -0.0020243262)
(0.053521184 0.021636461 -0.0020016389)
(0.049831334 0.022606853 0.0075819329)
(0.03659544 -0.04591608 0.015235171)
(0.024303166 -0.11555191 -0.0060877534)
(0.042190814 0.10234562 -0.021047232)
(0.060008137 -0.0015481565 0.023836444)
(0.077988701 -0.053441351 0.0084620015)
(0.085727711 -0.032912607 -0.011734434)
(0.085568485 0.032409198 -0.011683864)
(0.077721092 0.052483938 0.0086061212)
(0.059700657 -0.00041718077 0.023935517)
(0.04186259 -0.10276792 -0.021771477)
(0.059922214 0.073208456 -0.014083062)
(0.082386447 -0.047115128 0.046885205)
(0.10428609 -0.074307208 0.013297622)
(0.11568503 -0.038433858 -0.020811173)
(0.11548406 0.037710728 -0.020734402)
(0.10393461 0.073312764 0.013534725)
(0.082027877 0.045451201 0.047102729)
(0.059553477 -0.07341935 -0.015095068)
(0.077963957 0.02567823 -0.011747425)
(0.1046706 -0.092641196 0.056899863)
(0.13006776 -0.088514293 0.0075592443)
(0.14442662 -0.040459302 -0.036614618)
(0.14419387 0.039563042 -0.036512313)
(0.12963427 0.087428414 0.0078560247)
(0.10423033 0.091232232 0.057205636)
(0.077573741 -0.025730893 -0.012995708)
(0.096283081 -0.020709127 -0.0014747982)
(0.1270895 -0.12594741 0.066767532)
(0.15553173 -0.092232782 0.0050981073)
(0.17202645 -0.038013081 -0.043904241)
(0.17177065 0.036990229 -0.043782787)
(0.15502228 0.091077692 0.0054175667)
(0.12651848 0.12477561 0.067105629)
(0.095835663 0.020791664 -0.002896838)
(0.11466723 -0.05640163 0.015989186)
(0.149702 -0.13611071 0.072014777)
(0.18088664 -0.084271528 -0.009530308)
(0.19886289 -0.032370378 -0.063250267)
(0.1985914 0.031281063 -0.06312028)
(0.1803129 0.083060374 -0.0091991566)
(0.14902469 0.13494231 0.072365732)
(0.11414363 0.056402524 0.014554279)
(0.13293329 -0.084539414 0.028901282)
(0.1724091 -0.1365063 0.054323342)
(0.20535511 -0.053313971 -0.037780505)
(0.22402415 -0.013298913 -0.085302236)
(0.22374527 0.012114779 -0.08515748)
(0.20473462 0.052016071 -0.037451722)
(0.17165383 0.13534843 0.054623134)
(0.13232802 0.084400612 0.027610883)
(0.0074331512 0.01053027 -0.0051647254)
(0.012187578 0.0070124012 -0.00086939717)
(0.019942274 -0.011023296 -0.00035656203)
(0.018867021 -0.010321279 -0.0014394156)
(0.01881551 0.01017656 -0.0014363979)
(0.01983901 0.010886995 -0.00035930552)
(0.012123747 -0.0071888716 -0.0008555424)
(0.0073434222 -0.010389019 -0.0052625786)
(0.023967164 0.11684442 -0.0056738814)
(0.036660325 0.04357004 0.015153044)
(0.052826175 -0.024998894 0.0089086421)
(0.055149334 -0.023405663 -0.0022929067)
(0.055008277 0.022986252 -0.0022761512)
(0.052601876 0.024638033 0.0089109245)
(0.036502533 -0.043946152 0.015207977)
(0.023868732 -0.11639776 -0.0059303101)
(0.041333898 0.10347546 -0.020735152)
(0.060450323 -0.0042091875 0.024190959)
(0.082080187 -0.058690318 0.0099182585)
(0.089161102 -0.034589089 -0.012415672)
(0.088953139 0.033856529 -0.012369114)
(0.081769743 0.057707449 0.0099340288)
(0.060282781 0.003246457 0.024212971)
(0.041264794 -0.10285742 -0.021522833)
(0.059216992 0.073694143 -0.013529057)
(0.083861985 -0.049905611 0.047994379)
(0.10944197 -0.079918238 0.014756272)
(0.12119258 -0.039942049 -0.02199653)
(0.12093678 0.039007308 -0.021914006)
(0.10904792 0.078813961 0.014820885)
(0.083708094 0.04879504 0.048016622)
(0.0591041 -0.073344079 -0.014597003)
(0.077598833 0.025538373 -0.010963912)
(0.10717611 -0.095974573 0.058514192)
(0.13612724 -0.093616056 0.0088124972)
(0.15149785 -0.041796656 -0.038335614)
(0.15120969 0.040700357 -0.038220718)
(0.1356542 0.092410909 0.0089335443)
(0.10692906 0.094889606 0.058527907)
(0.077473669 -0.025202942 -0.012278942)
(0.096372802 -0.021613432 -0.00036068876)
(0.1304793 -0.129804 0.06875696)
(0.16221349 -0.096630908 0.0059623021)
(0.18010626 -0.039184018 -0.045998143)
(0.17979936 0.037967564 -0.045857947)
(0.16166807 0.09534653 0.0061103766)
(0.13009923 0.12871219 0.06875593)
(0.096229019 0.021884343 -0.0019091273)
(0.11531145 -0.057933105 0.017442808)
(0.15374254 -0.14007594 0.074218373)
(0.18769442 -0.087889644 -0.0089781864)
(0.20709199 -0.033352453 -0.065725746)
(0.20677619 0.032074771 -0.065570648)
(0.1870909 0.086551805 -0.0087979293)
(0.15325652 0.13886083 0.074225082)
(0.11512318 0.057987374 0.01581839)
(0.13406928 -0.086560347 0.030630025)
(0.17679435 -0.14032034 0.056386745)
(0.21204416 -0.056082479 -0.037805533)
(0.23203077 -0.013943175 -0.088284148)
(0.23171641 0.012583474 -0.088109361)
(0.21140343 0.054665429 -0.037602272)
(0.17621869 0.13906622 0.056349898)
(0.13381053 0.086398474 0.029103363)
(0.0073091076 0.010764345 -0.0051134702)
(0.012025082 0.0071748721 -0.00096348267)
(0.019099647 -0.0095471519 -0.00034273884)
(0.019378363 -0.010646645 -0.0014583031)
(0.019282778 0.010381447 -0.0014504101)
(0.018884857 0.0091795635 -0.00035359612)
(0.011988907 -0.0076045739 -0.00094299718)
(0.0073343347 -0.010680116 -0.0051825176)
(0.023213714 0.11692815 -0.0055763377)
(0.035901047 0.043028767 0.014809677)
(0.053172272 -0.022363523 0.0094759536)
(0.056340782 -0.023698492 -0.0022784632)
(0.05609696 0.022980721 -0.0022355414)
(0.052713468 0.021319048 0.0094571698)
(0.035826617 -0.04435025 0.014841352)
(0.023261371 -0.1166655 -0.0058252054)
(0.040521339 0.10320347 -0.020550985)
(0.060323022 -0.005006696 0.023806331)
(0.084681342 -0.057745278 0.010819034)
(0.092143354 -0.035025776 -0.012310059)
(0.09179964 0.033904693 -0.01220183)
(0.084102613 0.055591571 0.010878363)
(0.060306543 0.0024373369 0.023745858)
(0.04058837 -0.10244094 -0.021473149)
(0.05866383 0.072951848 -0.013364576)
(0.084944053 -0.051186623 0.047675442)
(0.11389988 -0.080978565 0.015703284)
(0.12619132 -0.040528325 -0.02194074)
(0.12578751 0.039109246 -0.021754192)
(0.11324678 0.07857218 0.015917227)
(0.084978251 0.048275141 0.047545063)
(0.058693953 -0.072665025 -0.01482424)
(0.077449863 0.02488619 -0.010721177)
(0.10952395 -0.097197332 0.058400008)
(0.14191056 -0.095411844 0.0099314943)
(0.15801276 -0.042441712 -0.038420183)
(0.15758127 0.040810492 -0.038163065)
(0.14119311 0.093189293 0.010303765)
(0.10936957 0.09482734 0.058248449)
(0.077479809 -0.024781822 -0.012551307)
(0.096745808 -0.022248591 -3.5407035e-05)
(0.13395375 -0.13121209 0.068857056)
(0.16883904 -0.09867167 0.0069281644)
(0.18759308 -0.03983663 -0.046279886)
(0.18715829 0.038069399 -0.045973962)
(0.16807955 0.096499543 0.0073782777)
(0.13356953 0.12918032 0.068707511)
(0.096847789 0.022227171 -0.0021804609)
(0.11631646 -0.058652558 0.017834273)
(0.15799379 -0.14171999 0.074515314)
(0.19450652 -0.089890696 -0.0080790345)
(0.21468976 -0.033984862 -0.066137916)
(0.21426702 0.032169986 -0.065808206)
(0.1937298 0.087788882 -0.0075832654)