/*--------------------------------*- C++ -*----------------------------------*\
  =========                 |
  \\      /  F ield         | OpenFOAM: The Open Source CFD Toolbox
   \\    /   O peration     | Website:  https://openfoam.org
    \\  /    A nd           | Version:  13
     \\/     M anipulation  |
\*---------------------------------------------------------------------------*/
FoamFile
{
    format      ascii;
    class       volVectorField;
    location    "0.1";
    object      U;
}
// * * * * * * * * * * * * * * * * * * * * * * * * * * * * * * * * * * * * * //

dimensions      [0 1 -1 0 0 0 0];

internalField   nonuniform List<vector> 
51200
(
(0.053632116 0.013019519 0.011966133)
(0.058683622 0.007019115 0.012167598)
(0.057319623 0.0031621316 0.012254033)
(0.056589212 0.00083886928 0.012283263)
(0.056589248 -0.00083744089 0.012283259)
(0.057319725 -0.0031608696 0.012254026)
(0.058683786 -0.0070182057 0.012167591)
(0.053632315 -0.013019303 0.011966124)
(0.12334087 0.032101586 0.034112588)
(0.13025658 0.014376996 0.033352178)
(0.12720218 0.006539893 0.0333366)
(0.12578048 0.0017661826 0.03336391)
(0.12578055 -0.0017630412 0.033363896)
(0.12720238 -0.0065371159 0.03333657)
(0.1302569 -0.01437493 0.033352143)
(0.12334131 -0.032100945 0.03411255)
(0.16733407 0.041828727 0.046704816)
(0.17261775 0.018175045 0.044453451)
(0.16867722 0.0083259501 0.04423128)
(0.16701211 0.0022684856 0.044316879)
(0.16701219 -0.0022643222 0.044316851)
(0.16867745 -0.0083222385 0.044231208)
(0.17261813 -0.018172172 0.044453349)
(0.16733463 -0.041827625 0.046704704)
(0.19446776 0.045620719 0.05264953)
(0.19701499 0.019918953 0.048941502)
(0.19273944 0.0091540998 0.048510595)
(0.19107103 0.0025137287 0.048662284)
(0.19107111 -0.0025089624 0.048662241)
(0.19273967 -0.0091498092 0.048510479)
(0.19701535 -0.019915505 0.048941329)
(0.19446833 -0.045619141 0.052649314)
(0.21042574 0.0460806 0.054493991)
(0.21026502 0.020470706 0.049625967)
(0.20600911 0.0094039944 0.049046055)
(0.20445452 0.0026032239 0.049246567)
(0.2044546 -0.002598108 0.04924651)
(0.20600932 -0.0093993424 0.049045898)
(0.21026534 -0.020466836 0.049625732)
(0.21042629 -0.046078555 0.05449366)
(0.21897658 0.044641439 0.053678902)
(0.21661299 0.020328785 0.04805843)
(0.21259078 0.0093085033 0.047407571)
(0.21119748 0.002599232 0.047626259)
(0.21119755 -0.0025939176 0.047626192)
(0.21259096 -0.0093036211 0.047407381)
(0.21661326 -0.020324592 0.048058143)
(0.21897708 -0.044638947 0.053678462)
(0.22268383 0.042112511 0.051111523)
(0.21874742 0.019789416 0.04520711)
(0.21508175 0.0090087105 0.044544604)
(0.21386159 0.002539333 0.044743907)
(0.21386165 -0.0025339092 0.044743831)
(0.2150819 -0.0090036746 0.044544385)
(0.21874765 -0.019784963 0.045206787)
(0.22268427 -0.042109594 0.051110989)
(0.22325159 0.039085852 0.047598718)
(0.21834398 0.01896775 0.041642219)
(0.21510306 0.0085956915 0.041069895)
(0.21405246 0.0024459153 0.041216915)
(0.21405251 -0.0024404374 0.041216831)
(0.21510319 -0.0085905429 0.041069657)
(0.21834417 -0.018963072 0.041641884)
(0.22325197 -0.039082543 0.047598128)
(0.036111245 0.0033311999 0.0011909217)
(0.041708516 0.0037160849 0.0013033243)
(0.039957848 0.0021794922 0.0012384859)
(0.038653096 0.00070192491 0.0012195129)
(0.038653282 -0.00069919633 0.0012195105)
(0.039958422 -0.0021770942 0.0012384799)
(0.041709436 -0.003714389 0.0013033213)
(0.036112197 -0.0033308805 0.0011909284)
(0.096010673 0.011201233 0.0073733249)
(0.10669351 0.010489921 0.007687843)
(0.10218337 0.0059159602 0.0073894037)
(0.099177989 0.0018697492 0.0073122303)
(0.099178403 -0.0018630513 0.0073122123)
(0.10218465 -0.0059100442 0.0073893468)
(0.10669563 -0.010485586 0.0076878035)
(0.096013056 -0.011200072 0.0073733075)
(0.1452972 0.019326809 0.015072663)
(0.15673597 0.016108931 0.015232244)
(0.15015376 0.008878342 0.014618639)
(0.14614656 0.0027783805 0.014484234)
(0.14614709 -0.0027689092 0.014484193)
(0.1501554 -0.0088698953 0.014618499)
(0.15673877 -0.016102515 0.015232119)
(0.14530056 -0.019324634 0.015072554)
(0.18443733 0.026372503 0.022639146)
(0.19382522 0.020357564 0.022328237)
(0.1858059 0.01105041 0.021396892)
(0.18131313 0.0034394064 0.021221785)
(0.1813137 -0.0034280503 0.021221718)
(0.18580766 -0.011040178 0.021396648)
(0.19382829 -0.020349515 0.02232799)
(0.18444126 -0.026369218 0.022638879)
(0.21405752 0.031741696 0.029073585)
(0.21990049 0.023279946 0.028097403)
(0.21101335 0.012507418 0.026898345)
(0.20639519 0.0038842173 0.026699415)
(0.20639576 -0.0038716099 0.026699323)
(0.21101508 -0.012495941 0.026897991)
(0.21990357 -0.023270611 0.028097016)
(0.21406169 -0.031737267 0.029073116)
(0.23512345 0.035378342 0.033983378)
(0.23694836 0.025040755 0.032278653)
(0.2276773 0.013363146 0.030894926)
(0.22316812 0.0041509852 0.030684396)
(0.22316866 -0.0041375651 0.03068428)
(0.22767892 -0.013350805 0.03089447)
(0.23695127 -0.025030398 0.032278124)
(0.23512763 -0.035372773 0.033982682)
(0.24880535 0.037492481 0.037347161)
(0.24685284 0.025821879 0.034940386)
(0.23758515 0.013734282 0.033470362)
(0.23332688 0.0042761335 0.033256241)
(0.23332738 -0.0042621996 0.033256101)
(0.23758663 -0.013721345 0.033469823)
(0.24685549 -0.025810708 0.034939726)
(0.24880939 -0.037485809 0.03734624)
(0.25625351 0.038338998 0.039298165)
(0.25124523 0.025765525 0.03622881)
(0.24226453 0.013723773 0.034804677)
(0.23833877 0.0042899731 0.034593505)
(0.23833923 -0.0042757313 0.034593336)
(0.24226587 -0.013710427 0.034804088)
(0.25124759 -0.025753705 0.036228052)
(0.2562573 -0.038331315 0.039297073)
(0.016198104 0.0015121368 1.2827849e-05)
(0.023310213 0.0028718851 9.8771899e-05)
(0.024033949 0.0019420617 9.9292335e-05)
(0.023389259 0.00064921286 9.4445264e-05)
(0.023389709 -0.00064527966 9.4440042e-05)
(0.024035357 -0.0019386187 9.9284471e-05)
(0.023312401 -0.0028695338 9.8767707e-05)
(0.016200183 -0.0015117671 1.2831978e-05)
(0.052188667 0.0051563922 0.0019679675)
(0.068965829 0.0081231988 0.0024370291)
(0.069852306 0.0052940914 0.0023312664)
(0.068006767 0.0017615316 0.0022424915)
(0.068007812 -0.0017515735 0.0022424579)
(0.069855616 -0.0052853237 0.0023311924)
(0.068971194 -0.0081169788 0.0024369982)
(0.052194185 -0.0051548982 0.0019679579)
(0.089605701 0.0097207523 0.0054651589)
(0.11172905 0.012900466 0.006280038)
(0.11184912 0.0081422678 0.0059852953)
(0.10896396 0.0026911354 0.0057702391)
(0.10896536 -0.0026767209 0.0057701664)
(0.11185356 -0.0081294532 0.0059851144)
(0.11173652 -0.012891046 0.0062799392)
(0.089613873 -0.009717827 0.0054650842)
(0.12620672 0.014826159 0.01014104)
(0.14995452 0.017064245 0.011130086)
(0.14877434 0.010471384 0.010575164)
(0.14507337 0.0034393032 0.010210238)
(0.14507493 -0.0034216834 0.01021012)
(0.14877934 -0.010455557 0.010574843)
(0.14996318 -0.017052203 0.011129876)
(0.12621677 -0.014821619 0.010140839)
(0.1599836 0.019933104 0.015347979)
(0.18249164 0.020471408 0.01625883)
(0.17982236 0.012269575 0.015398613)
(0.17555621 0.0040100457 0.01488367)
(0.1755578 -0.0039901802 0.014883505)
(0.17982748 -0.012251543 0.015398132)
(0.18250078 -0.020457221 0.016258464)
(0.15999483 -0.019926851 0.015347585)
(0.18940437 0.024620182 0.020559198)
(0.20880244 0.023030366 0.021135706)
(0.20470477 0.013544301 0.019948321)
(0.20011407 0.0044125065 0.019297845)
(0.20011561 -0.0043911097 0.019297636)
(0.20470973 -0.013524678 0.019947676)
(0.20881153 -0.023014423 0.021135152)
(0.18941615 -0.024612178 0.020558552)
(0.21348222 0.028623226 0.025414274)
(0.22890743 0.024695222 0.025412162)
(0.22357673 0.014325312 0.023898882)
(0.21886873 0.0046610386 0.023139221)
(0.21887017 -0.004638632 0.023138974)
(0.22358136 -0.014304556 0.023898079)
(0.22891609 -0.024677842 0.025411401)
(0.21349406 -0.028613484 0.025413332)
(0.23169962 0.0316385 0.029420934)
(0.24325692 0.02547209 0.028734757)
(0.2368922 0.014666958 0.026956504)
(0.2322363 0.0047747112 0.026141192)
(0.23223762 -0.0047516753 0.026140914)
(0.23689641 -0.014645415 0.026955572)
(0.24326489 -0.025453538 0.028733792)
(0.23171115 -0.031627134 0.029419735)
(0.014247049 0.00058550579 7.6524206e-05)
(0.0209536 0.0015818469 0.00010558462)
(0.022467575 0.0012394594 9.8375482e-05)
(0.022250365 0.00043905829 8.813179e-05)
(0.022251161 -0.00043360574 8.8125705e-05)
(0.022470024 -0.0012347507 9.8370142e-05)
(0.020957265 -0.0015787586 0.0001055875)
(0.014250355 -0.00058511953 7.6535654e-05)
(0.043918182 0.0022510156 0.0007709393)
(0.060520488 0.0048484582 0.0010522419)
(0.063938949 0.0036421389 0.0010091425)
(0.063240433 0.0012798906 0.00091968552)
(0.063242321 -0.0012659133 0.00091964617)
(0.063944848 -0.0036299851 0.0010090773)
(0.060529676 -0.0048401385 0.0010522644)
(0.043927107 -0.0022492593 0.00077097113)
(0.074135777 0.0045740659 0.0022422795)
(0.097442382 0.0081506858 0.0028909785)
(0.1017357 0.0059013873 0.002762018)
(0.1005 0.0020565154 0.0025410689)
(0.10050257 -0.0020360794 0.0025409825)
(0.10174383 -0.0058834365 0.0027618475)
(0.097455498 -0.0081379284 0.0028909974)
(0.074149268 -0.0045704541 0.0022422944)
(0.10430001 0.0074687714 0.0044756684)
(0.13147355 0.011356984 0.0054944971)
(0.13576884 0.0079447627 0.0052204889)
(0.13396694 0.0027460809 0.0048339147)
(0.13396988 -0.00272088 0.0048337725)
(0.13577824 -0.0079223877 0.0052201709)
(0.13148924 -0.011340516 0.0054944746)
(0.10431705 -0.0074630027 0.0044756146)
(0.13362852 0.010764744 0.0073500418)
(0.16222206 0.014309431 0.0086340263)
(0.16584613 0.0097030353 0.0081527893)
(0.16349434 0.0033294705 0.0075872571)
(0.1634974 -0.0033008489 0.0075870564)
(0.16585606 -0.0096773447 0.0081522927)
(0.1622392 -0.014289879 0.0086339097)
(0.13364811 -0.010756651 0.0073498527)
(0.16120466 0.014243863 0.01067612)
(0.18927353 0.01685301 0.012041188)
(0.19176388 0.011124165 0.011296952)
(0.18892289 0.0037941988 0.010557774)
(0.18892593 -0.0037631941 0.010557517)
(0.19177379 -0.011096031 0.011296259)
(0.18929118 -0.016830905 0.012040922)
(0.16122592 -0.01423337 0.01067572)
(0.18608841 0.017664006 0.014223367)
(0.2123349 0.018854606 0.015435)
(0.21340217 0.012181544 0.014390474)
(0.21016565 0.0041358206 0.013501293)
(0.21016854 -0.0041032172 0.013500985)
(0.21341166 -0.012151642 0.01438958)
(0.21235231 -0.018830392 0.015434539)
(0.18611049 -0.017651119 0.014222686)
(0.20744061 0.020701682 0.017604951)
(0.23135909 0.020242321 0.018551461)
(0.23078669 0.012878142 0.017193838)
(0.22727186 0.0043582868 0.01620842)
(0.22727455 -0.0043246724 0.01620807)
(0.23079551 -0.01284699 0.017192761)
(0.23137567 -0.020216361 0.018550767)
(0.20746283 -0.020686546 0.017604015)
(0.011490249 0.00032895832 1.3585606e-05)
(0.018047517 0.00097511631 4.1950594e-05)
(0.020336539 0.00080259516 4.2035514e-05)
(0.020633385 0.00028925389 3.3705307e-05)
(0.020634693 -0.00028166556 3.3699365e-05)
(0.020340487 -0.0007961415 4.2032033e-05)
(0.018053248 -0.00097101998 4.1958486e-05)
(0.011495273 -0.00032852378 1.3598495e-05)
(0.0362463 0.0012663994 0.00042544771)
(0.052971852 0.0030266642 0.00064199237)
(0.058562622 0.0024310335 0.00061706595)
(0.059183295 0.00087897708 0.00053074105)
(0.059186447 -0.00085944238 0.00053069874)
(0.058572298 -0.0024142795 0.0006170069)
(0.052986431 -0.0030155083 0.00064205818)
(0.036260025 -0.0012642311 0.00042549015)
(0.062092857 0.0025961747 0.0012826504)
(0.086247693 0.0051744184 0.0017691234)
(0.093969529 0.004047573 0.0016870221)
(0.094659108 0.0014594017 0.0014748391)
(0.094663457 -0.0014307392 0.0014747423)
(0.093983075 -0.0040227194 0.0016868577)
(0.086268777 -0.005157184 0.0017692417)
(0.062113821 -0.0025915587 0.0012826888)
(0.088458369 0.004305448 0.0025917685)
(0.11760379 0.0073683621 0.0033720908)
(0.12642707 0.0056048706 0.003192379)
(0.12696802 0.0020108264 0.0028222146)
(0.12697305 -0.0019753669 0.0028220504)
(0.12644298 -0.0055737741 0.0031920569)
(0.11762938 -0.0073459872 0.0033722322)
(0.088485125 -0.0042979266 0.0025917537)
(0.11474185 0.0063366415 0.0043086685)
(0.14676919 0.0095245106 0.0053451438)
(0.15581476 0.0070464155 0.0050227183)
(0.15603901 0.0025132786 0.0044809059)
(0.15604434 -0.002472896 0.004480669)
(0.15583185 -0.0070105981 0.0050221958)
(0.14679758 -0.0094978404 0.0053452533)
(0.11477301 -0.0063259575 0.004308536)
(0.14030959 0.0086032091 0.0063679525)
(0.17349292 0.011538264 0.0075642323)
(0.18202944 0.0083178868 0.0070531803)
(0.18182322 0.0029493295 0.0063422452)
(0.18182857 -0.0029054945 0.0063419362)
(0.18204679 -0.008278567 0.0070524276)
(0.17352268 -0.011508034 0.0075642427)
(0.14034384 -0.0085892515 0.0063676231)
(0.16450625 0.010978699 0.0086674948)
(0.19758699 0.013299375 0.0098778005)
(0.20500248 0.0093774128 0.0091409477)
(0.20430612 0.0033066799 0.0082801669)
(0.20431129 -0.003260525 0.0082797906)
(0.20501939 -0.0093355474 0.0091399492)
(0.19761692 -0.013266216 0.0098776458)
(0.16454239 -0.010961481 0.0086668896)
(0.18668952 0.013250274 0.010981604)
(0.21899488 0.014732195 0.012147766)
(0.22472084 0.010203164 0.011155396)
(0.22353001 0.0035799276 0.010191007)
(0.22353487 -0.0035323151 0.010190572)
(0.22473682 -0.0101595 0.01115416)
(0.21902396 -0.014696619 0.012147378)
(0.18672649 -0.013230003 0.010980761)
(0.010240495 0.000187063 1.3655439e-05)
(0.016504536 0.0005794982 3.1255918e-05)
(0.019187227 0.00048806546 3.051372e-05)
(0.019857076 0.00017889849 2.309191e-05)
(0.019859101 -0.00016832135 2.3087748e-05)
(0.019193218 -0.00047922045 3.0510471e-05)
(0.016512997 -0.0005740674 3.126581e-05)
(0.010247737 -0.00018656161 1.3667058e-05)
(0.032332154 0.00073428933 0.00025554779)
(0.048591623 0.0018435185 0.0004122962)
(0.055413378 0.001539633 0.00039930824)
(0.057057791 0.00057145679 0.00032727651)
(0.05706273 -0.00054418172 0.00032723967)
(0.055428225 -0.001516582 0.0003992603)
(0.048613347 -0.0018285886 0.00041240299)
(0.03235209 -0.00073156963 0.00025558339)
(0.055511851 0.0015242792 0.00077155322)
(0.079413174 0.0032134987 0.0011393147)
(0.089219508 0.0026399312 0.0010938807)
(0.091481635 0.0009818018 0.00091657098)
(0.091488526 -0.0009417294 0.00091648003)
(0.089240523 -0.0026056426 0.001093741)
(0.079444871 -0.0031902809 0.0011395373)
(0.055542519 -0.0015183219 0.00077157582)
(0.079362837 0.002559375 0.0015714762)
(0.10880784 0.0046670464 0.0021799401)
(0.12054855 0.0037567236 0.0020750712)
(0.12310175 0.0013943524 0.0017652425)
(0.12310982 -0.0013447226 0.0017650791)
(0.12057353 -0.0037137272 0.00207478)
(0.10884668 -0.0046367442 0.002180264)
(0.079402279 -0.0025495092 0.0015714383)
(0.10344347 0.0038190696 0.0026374435)
(0.13660793 0.0061599557 0.0034722816)
(0.14933967 0.0048500418 0.0032764184)
(0.15189848 0.0017927775 0.0028219898)
(0.15190714 -0.0017362117 0.0028217435)
(0.14936684 -0.0048004359 0.003275918)
(0.13665148 -0.0061236962 0.0034726517)
(0.10348978 -0.0038049064 0.0026372808)
(0.12728922 0.0052665289 0.0039389178)
(0.16266136 0.0076316721 0.0049457976)
(0.17554032 0.0058782206 0.0046257498)
(0.17786782 0.0021614705 0.0040277366)
(0.17787661 -0.0021000424 0.0040274039)
(0.17556827 -0.0058237044 0.0046249929)
(0.16270755 -0.0075904715 0.0049461353)
(0.12734059 -0.0052478954 0.0039385467)
(0.15041883 0.0068398365 0.0054249574)
(0.18686194 0.0090120353 0.0065160755)
(0.19911594 0.0068040385 0.0060424309)
(0.20102929 0.0024873765 0.0053150574)
(0.20103788 -0.0024226969 0.0053146401)
(0.19914357 -0.0067459607 0.0060413849)
(0.18690901 -0.0089667861 0.0065162959)
(0.15047359 -0.0068167463 0.0054242915)
(0.17234671 0.0084192588 0.0069739164)
(0.20919216 0.010246441 0.0081164961)
(0.22005463 0.0076001097 0.0074571176)
(0.22143385 0.0027616372 0.0066354562)
(0.22144202 -0.0026949428 0.0066349598)
(0.22008112 -0.0075395318 0.007455773)
(0.20923856 -0.010197877 0.0081164965)
(0.17240334 -0.0083920029 0.0069730248)
(0.0094044155 0.00011911161 7.0239637e-06)
(0.015447612 0.00036137884 2.015248e-05)
(0.018373522 0.00030119697 2.0519616e-05)
(0.019313916 0.00011199745 1.4995791e-05)
(0.019316974 -9.7192803e-05 1.4997083e-05)
(0.018382401 -0.0002890191 2.0515694e-05)
(0.015459889 -0.00035414848 2.0164723e-05)
(0.0094147372 -0.00011849681 7.0346318e-06)
(0.029788876 0.00046146001 0.00015976065)
(0.045638461 0.0011590601 0.00027568622)
(0.053224738 0.00097813294 0.00027198773)
(0.055623432 0.00037216535 0.00021725377)
(0.055630954 -0.00033397877 0.00021723222)
(0.053246907 -0.00094631598 0.00027194424)
(0.045670163 -0.0011390297 0.00027581586)
(0.029817423 -0.0004579561 0.00015975934)
(0.0512856 0.00095469143 0.00048812769)
(0.074820602 0.0020394052 0.00076292362)
(0.085937988 0.0017144188 0.00074395727)
(0.089380924 0.00065676029 0.0006087125)
(0.089391502 -0.00060065105 0.00060864056)
(0.085969588 -0.0016670103 0.00074382768)
(0.0748671 -0.002008079 0.00076319944)
(0.051329693 -0.0009468765 0.00048804246)
(0.073540327 0.0016055896 0.0010009055)
(0.10287422 0.0029960916 0.0014622953)
(0.1164843 0.0024915459 0.0014112116)
(0.12058489 0.00095530963 0.0011742797)
(0.12059739 -0.00088582264 0.0011741296)
(0.11652215 -0.002432022 0.0014109265)
(0.10293151 -0.0029550139 0.0014627104)
(0.073597278 -0.0015925052 0.001000667)
(0.096185873 0.0024073863 0.0016893413)
(0.12968036 0.0040083473 0.0023350285)
(0.14483111 0.0032848963 0.0022311472)
(0.14923777 0.0012564589 0.0018829434)
(0.14925129 -0.0011772833 0.0018826964)
(0.14487261 -0.0032161653 0.0022306317)
(0.129745 -0.0039590099 0.0023355267)
(0.096253055 -0.0023884599 0.0016888739)
(0.11884163 0.0033443999 0.0025378091)
(0.15513591 0.0050438163 0.0033385671)
(0.170949 0.0040669182 0.0031594374)
(0.17535166 0.0015486244 0.0027003252)
(0.17536551 -0.0014626896 0.0026999712)
(0.17099207 -0.0039913561 0.0031586245)
(0.15520495 -0.0049876045 0.0033390615)
(0.11891654 -0.0033193635 0.0025370217)
(0.14111457 0.0043865688 0.0035196256)
(0.17917532 0.0060618164 0.0044241709)
(0.19481623 0.0048104971 0.0041485119)
(0.19895335 0.001821111 0.0035886537)
(0.19896703 -0.0017307013 0.0035881894)
(0.19485924 -0.0047300057 0.00414735)
(0.17924622 -0.0059999776 0.0044245648)
(0.14119485 -0.0043554234 0.0035184288)
(0.16260191 0.0054669815 0.0045673079)
(0.20180202 0.0070284596 0.0055590833)
(0.21641769 0.0054921934 0.0051589993)
(0.22008816 0.0020653005 0.004523449)
(0.22010129 -0.0019721761 0.0045228746)
(0.21645937 -0.0054082782 0.0051574609)
(0.20187257 -0.0069620393 0.0055592532)
(0.16268543 -0.0054301194 0.004565834)
(0.0088813709 7.9806967e-05 4.4712872e-06)
(0.014747317 0.00023605222 1.3657657e-05)
(0.017803758 0.00019461554 1.443937e-05)
(0.018923592 7.50469e-05 1.0543531e-05)
(0.018928163 -5.4257416e-05 1.0553264e-05)
(0.017816809 -0.00017779408 1.4428558e-05)
(0.014765041 -0.00022642557 1.3665567e-05)
(0.008896013 -7.9002164e-05 4.4714615e-06)
(0.028172717 0.00030466718 0.00010341336)
(0.043657246 0.00075852071 0.000188575)
(0.051678374 0.00064292297 0.00019197528)
(0.054590641 0.00025418131 0.00015359446)
(0.05460195 -0.00020056963 0.00015359326)
(0.051711122 -0.00059888408 0.00019190463)
(0.043703195 -0.0007316646 0.00018866645)
(0.028213364 -0.00030005182 0.00010329407)
(0.04857168 0.00062654913 0.00031885364)
(0.071709475 0.0013402013 0.00052439108)
(0.08360128 0.001142325 0.0005261553)
(0.08786596 0.00045478118 0.00043092836)
(0.087881952 -0.00037603695 0.0004308765)
(0.083648167 -0.0010766206 0.00052596704)
(0.071777093 -0.001297975 0.00052456886)
(0.048634646 -0.00061618509 0.00031845512)
(0.069765635 0.0010525377 0.00065854053)
(0.098812441 0.0019813855 0.0010093338)
(0.11356259 0.0016830229 0.0010001594)
(0.11876458 0.00067043868 0.00083268772)
(0.11878358 -0.00057297545 0.00083254173)
(0.11361901 -0.0016004532 0.00099976643)
(0.098896033 -0.0019257582 0.0010095775)
(0.069847193 -0.0010350909 0.0006577342)
(0.09143378 0.0015817105 0.0011190302)
(0.12487729 0.0026730534 0.0016188325)
(0.14154754 0.0022508985 0.0015855673)
(0.1473019 0.00089400529 0.0013385349)
(0.14732258 -0.00078304061 0.001338263)
(0.14160974 -0.0021555086 0.0015848725)
(0.12497194 -0.0026059816 0.0016190781)
(0.091530263 -0.001556362 0.0011177094)
(0.11324547 0.002208054 0.0016926477)
(0.14982967 0.0033983457 0.0023263309)
(0.16754064 0.0028290917 0.0022536315)
(0.17349792 0.0011177843 0.001926783)
(0.17351926 -0.00099747097 0.0019263654)
(0.16760556 -0.0027242125 0.0022525465)
(0.14993115 -0.0033216938 0.0023264875)
(0.11335336 -0.0021743998 0.0016907099)
(0.13485891 0.0029169583 0.0023650972)
(0.17362735 0.0041340722 0.0031020979)
(0.19152764 0.0033997048 0.0029742123)
(0.19738092 0.0013341383 0.0025742757)
(0.19740213 -0.0012077212 0.0025737024)
(0.19159287 -0.003288021 0.0029726681)
(0.17373204 -0.0040495574 0.0031020714)
(0.1349749 -0.0028749666 0.002362457)
(0.15591997 0.0036692725 0.0030967918)
(0.19628694 0.0048599664 0.00392844)
(0.21349268 0.0039455819 0.0037219627)
(0.21899016 0.0015362425 0.0032658373)
(0.21901066 -0.0014062262 0.0032651029)
(0.21355633 -0.0038292306 0.0037199182)
(0.19639165 -0.0047690599 0.0039281084)
(0.15604104 -0.0036194477 0.0030936881)
(0.0085293152 5.7121325e-05 2.9559481e-06)
(0.014260938 0.00016647648 9.5544921e-06)
(0.017387028 0.00013907239 1.0706954e-05)
(0.018623853 5.8136878e-05 8.1363461e-06)
(0.01863068 -2.8755771e-05 8.1566984e-06)
(0.017406245 -0.00011570545 1.0682482e-05)
(0.014286624 -0.00015368475 9.5498754e-06)
(0.0085501762 -5.6008731e-05 2.9340413e-06)
(0.027082961 0.00021406704 7.0461971e-05)
(0.042274278 0.00053028372 0.00013391216)
(0.050540726 0.00045630607 0.00014214842)
(0.053794434 0.00019295637 0.00011696657)
(0.053811396 -0.00011723071 0.00011697319)
(0.050589117 -0.00039502486 0.00014196775)
(0.042341078 -0.00049433856 0.00013380587)
(0.027141066 -0.00020792966 7.0048397e-05)
(0.046736923 0.00043608653 0.00021853026)
(0.069525776 0.00093353672 0.00037405909)
(0.081870642 0.00080961232 0.00039000819)
(0.086691034 0.00034202704 0.00032729443)
(0.086715105 -0.0002308863 0.00032721851)
(0.081940125 -0.00071809519 0.00038955402)
(0.069624291 -0.00087670085 0.0003737243)
(0.046827137 -0.00042233122 0.00021734036)
(0.067203835 0.0007290706 0.00045347786)
(0.095941138 0.0013791076 0.00072283825)
(0.11137924 0.0011947421 0.00074255557)
(0.11733953 0.00050203486 0.00063178245)
(0.11736823 -0.00036461233 0.00063155078)
(0.11146308 -0.001079671 0.00074169123)
(0.096063152 -0.001303866 0.0007221768)
(0.067320904 -0.00070587024 0.00045122782)
(0.088191162 0.0010940864 0.00077424164)
(0.12145028 0.0018637972 0.0011641793)
(0.13906376 0.0016044225 0.0011798494)
(0.14576414 0.00066906667 0.0010156926)
(0.14579551 -0.00051280569 0.0010152529)
(0.13915644 -0.0014714656 0.0011784436)
(0.12158867 -0.0017726947 0.0011630995)
(0.088329868 -0.0010602822 0.00077074371)
(0.10939904 0.001529324 0.0011771632)
(0.14599731 0.0023790805 0.0016808481)
(0.16491883 0.0020291344 0.0016820936)
(0.17199067 0.00083859161 0.0014639037)
(0.17202316 -0.00066942557 0.0014632247)
(0.16501587 -0.0018829899 0.0016800405)
(0.14614594 -0.0022746072 0.0016792704)
(0.10955435 -0.0014843025 0.001172289)
(0.13051786 0.0020276948 0.0016544531)
(0.16955597 0.0029117759 0.0022537585)
(0.18893712 0.0024579397 0.002228772)
(0.19604932 0.0010057638 0.0019606137)
(0.19608173 -0.00082833397 0.0019596808)
(0.18903496 -0.0023024179 0.0022260013)
(0.16970958 -0.0027962805 0.0022516351)
(0.13068504 -0.0019713483 0.0016481474)
(0.15122529 0.0025653088 0.0021821236)
(0.19215381 0.0034499498 0.0028730378)
(0.21110561 0.0028794056 0.0028022088)
(0.21797696 0.0011658666 0.0024947338)
(0.21800843 -0.00098375678 0.0024935433)
(0.21120144 -0.0027175537 0.0027986945)
(0.1923078 -0.0033254878 0.0028703163)
(0.15139999 -0.0024982709 0.0021748463)
(0.0082775479 4.3504288e-05 2.1934806e-06)
(0.013904739 0.00012779596 6.9759309e-06)
(0.017066259 0.00011305807 8.308854e-06)
(0.018379399 5.3898004e-05 6.6848707e-06)
(0.018389767 -1.2049166e-05 6.7078553e-06)
(0.017095138 -8.0384089e-05 8.2423223e-06)
(0.013942819 -0.00011082099 6.9131687e-06)
(0.0083079249 -4.1880444e-05 2.1063745e-06)
(0.02630383 0.00016005779 5.1300876e-05)
(0.041259268 0.00040073615 9.9301368e-05)
(0.049662158 0.00035976802 0.00011016161)
(0.053142602 0.00016924208 9.4669057e-05)
(0.053168421 -6.1437939e-05 9.4626369e-05)
(0.049735009 -0.00027392604 0.00010965735)
(0.041358445 -0.00035265653 9.855703e-05)
(0.026388674 -0.00015184048 5.0130023e-05)
(0.045424816 0.00032265975 0.00015906079)
(0.06791905 0.00069857738 0.00027842257)
(0.080528606 0.00062713103 0.00030242649)
(0.085723449 0.00029026824 0.00026377329)
(0.085760147 -0.00013219082 0.00026353473)
(0.0806333 -0.0004988322 0.0003011974)
(0.068065363 -0.00062209823 0.00027653892)
(0.045556725 -0.00030445252 0.00015590353)
(0.065369961 0.00053563031 0.00033025903)
(0.093820919 0.0010246271 0.00053967329)
(0.1096761 0.00091420988 0.00057637408)
(0.11615496 0.00041594596 0.00050780816)
(0.11619878 -0.00022073849 0.00050724998)
(0.10980249 -0.00075284462 0.00057417194)
(0.094002077 -0.0009228625 0.00053637034)
(0.065541213 -0.00050497677 0.00032449168)
(0.085865248 0.00080027245 0.00056458208)
(0.11890696 0.0013782208 0.00087186918)
(0.13711009 0.0012179756 0.00091708837)
(0.14446757 0.00054476449 0.00081493008)
(0.14451551 -0.00032315977 0.00081397043)
(0.13724982 -0.0010315619 0.00091373347)
(0.11911228 -0.0012544698 0.00086701316)
(0.086068104 -0.00075555665 0.00055585925)
(0.10663097 0.0011162729 0.00086010028)
(0.14313369 0.0017550984 0.0012630852)
(0.16283274 0.0015336879 0.0013099431)
(0.17069173 0.00067462507 0.0011733962)
(0.17074142 -0.00043518901 0.0011719931)
(0.16297906 -0.0013289115 0.0013053326)
(0.14335398 -0.0016126792 0.001256659)
(0.10685793 -0.0010565739 0.00084827851)
(0.12737893 0.0014799796 0.0012122299)
(0.16648625 0.002147685 0.0017002653)
(0.18684283 0.0018552689 0.0017399266)
(0.19486011 0.000802965 0.0015711916)
(0.19490974 -0.00055240029 0.0015693347)
(0.18699037 -0.0016375801 0.0017340337)
(0.16671366 -0.0019898025 0.00169237)
(0.12762295 -0.0014050475 0.0011973655)
(0.14780855 0.0018759535 0.0016057458)
(0.18900112 0.002549053 0.0021779652)
(0.2091315 0.0021757321 0.0021941218)
(0.21700957 0.00092699293 0.0019993664)
(0.2170578 -0.00067047135 0.0019970682)
(0.20927607 -0.0019495035 0.0021869986)
(0.1892289 -0.0023785693 0.0021687542)
(0.14806317 -0.0017865555 0.0015887482)
(0.0080827682 3.5243052e-05 1.9226606e-06)
(0.013627728 0.00010644749 5.3568598e-06)
(0.016808261 0.00010443785 6.7117412e-06)
(0.018173815 5.8594493e-05 5.7197389e-06)
(0.018189707 2.0681357e-06 5.7382217e-06)
(0.016852381 -5.7828102e-05 6.5685455e-06)
(0.013685721 -8.3460573e-05 5.2813209e-06)
(0.008128686 -3.2846442e-05 1.6296445e-06)
(0.025704402 0.00012679817 4.1262835e-05)
(0.040471124 0.00032793249 7.7697134e-05)
(0.048954564 0.00031815868 8.8953434e-05)
(0.052592062 0.00017235494 7.9906623e-05)
(0.052631773 -1.6232298e-05 7.9638575e-05)
(0.049066221 -0.00019561148 8.7433904e-05)
(0.040621444 -0.00026211692 7.4724378e-05)
(0.025832173 -0.00011584863 3.7962608e-05)
(0.044419459 0.00025289895 0.00012638686)
(0.066672526 0.00056424896 0.00021814886)
(0.079445602 0.0005386078 0.00024419838)
(0.08490171 0.00028265583 0.00022166907)
(0.084958227 -5.4075958e-05 0.00022081775)
(0.079606049 -0.00035561643 0.00024053156)
(0.066893851 -0.00045931357 0.00021120004)
(0.044618106 -0.0002291869 0.00011785525)
(0.063969461 0.0004164624 0.00026036902)
(0.092176197 0.00081810878 0.0004231433)
(0.10829734 0.00076680372 0.0004655069)
(0.11514088 0.00039026026 0.0004254276)
(0.1152084 -0.00010857094 0.00042376355)
(0.10849082 -0.00053694668 0.00045919462)
(0.092449695 -0.00067829029 0.00041171123)
(0.064227064 -0.00037669651 0.00024510352)
(0.084093235 0.0006183384 0.00044253578)
(0.1169323 0.0010896575 0.00068409411)
(0.13552091 0.0010023539 0.00074100838)
(0.14334468 0.00049554797 0.00068099441)
(0.14341852 -0.0001765749 0.00067840159)
(0.13573448 -0.00073724539 0.00073185329)
(0.11724155 -0.00091941777 0.00066812943)
(0.084397672 -0.00056024481 0.00041988159)
(0.10452486 0.0008584957 0.00067132005)
(0.14090573 0.0013766595 0.00099200298)
(0.16112407 0.0012436204 0.0010591641)
(0.16954736 0.00059835715 0.00097850569)
(0.16962386 -0.00025473479 0.0009749595)
(0.16134728 -0.00095296933 0.0010471961)
(0.14123663 -0.0011805077 0.00097178202)
(0.10486439 -0.00078065679 0.00064124687)
(0.1249908 0.0011346892 0.0009434873)
(0.16408971 0.0016745978 0.001337227)
(0.18511053 0.0014878575 0.0014082675)
(0.19378419 0.00069799731 0.0013080565)
(0.19386054 -0.00033960241 0.0013036)
(0.18533514 -0.0011795963 0.0013936901)
(0.16443028 -0.0014569561 0.0013133306)
(0.12535446 -0.0010365588 0.00090648649)
(0.14520569 0.0014360405 0.0012483369)
(0.18652757 0.0019795229 0.0017167605)
(0.20747541 0.0017313682 0.0017785298)
(0.21609301 0.0007933479 0.0016620347)
(0.21616712 -0.00042778076 0.0016567701)
(0.20769506 -0.0014118623 0.0017617293)
(0.18686767 -0.0017444015 0.0016899963)
(0.14558353 -0.0013185276 0.00120648)
(0.0079126508 3.1182353e-05 2.413923e-06)
(0.013392421 9.7068767e-05 4.6437327e-06)
(0.016588954 0.00010765306 5.731215e-06)
(0.01799661 7.1125611e-05 5.0569056e-06)
(0.01802227 1.8089314e-05 4.9821928e-06)
(0.016661543 -3.721853e-05 5.1450031e-06)
(0.01350086 -6.0624056e-05 2.5079598e-06)
(0.0079898315 -2.7734939e-05 9.3419785e-07)
(0.025188568 0.00010763178 3.9241979e-05)
(0.03980769 0.0002933078 6.5762966e-05)
(0.048354787 0.00031393713 7.4864852e-05)
(0.052116211 0.00019848955 6.932629e-05)
(0.052180274 3.1261391e-05 6.8270719e-05)
(0.048536582 -0.00012679483 6.9474669e-05)
(0.040056397 -0.00016888595 5.5291288e-05)
(0.025401585 -7.0064006e-05 3.013493e-05)
(0.043564874 0.00021169486 0.00011600561)
(0.06563051 0.00049661844 0.00018328883)
(0.078529102 0.00051410809 0.00020506353)
(0.084188813 0.00031229888 0.00019148735)
(0.084279756 2.3216751e-05 0.00018870667)
(0.078788129 -0.00024246397 0.00019279738)
(0.065986907 -0.00032532855 0.00016290576)
(0.043893038 -0.00016264546 9.5842402e-05)
(0.062792479 0.00034499285 0.00023321815)
(0.090809566 0.000708656 0.00035354156)
(0.10713117 0.0007104413 0.00039038097)
(0.11425619 0.0004149018 0.00036640077)
(0.11436443 -2.67416e-06 0.00036166267)
(0.10744106 -0.00037375249 0.00037147103)
(0.091244053 -0.00049519975 0.00032282112)
(0.063213638 -0.00027867725 0.00019711512)