/*--------------------------------*- C++ -*----------------------------------*\
  =========                 |
  \\      /  F ield         | OpenFOAM: The Open Source CFD Toolbox
   \\    /   O peration     | Website:  https://openfoam.org
    \\  /    A nd           | Version:  13
     \\/     M anipulation  |
\*---------------------------------------------------------------------------*/
FoamFile
{
    format      ascii;
    class       surfaceScalarField;
    location    "0.05";
    object      alphaPhi.water;
}
// * * * * * * * * * * * * * * * * * * * * * * * * * * * * * * * * * * * * * //

dimensions      [0 3 -1 0 0 0 0];

internalField   nonuniform List<scalar> 
150720
(
0
0
0
0
0
0
0
0
0
0
0
0
0
0
0
0
0
0
0
0
0
0
0
0
0
0
0
0
0
0
0
0
0
0
0
0
0
0
0
0
0
0
0
0
0
0
0
0
0
0
0
0
0
0
0
0
0
0
0
0
0
0
0
0
0
0
0
0
0
0
0
0
0
0
0
0
0
0
0
0
0
0
0
0
0
0
0
0
0
0
0
0
0
0
0
0
0
0
0
0
0
0
0
0
0
0
0
0
0
0
0
0
0
0
0
0
0
0
0
0
0
0
0
0
0
0
0
0
0
0
0
0
0
0
0
0
0
0
0
0
0
0
0
0
0
0
0
0
0
0
0
0
0
0
0
0
0
0
0
0
0
0
0
0
0
0
0
0
0
0
0
0
0
0
0
0
0
0
0
0
0
0
0
0
0
0
0
0
0
0
0
0
0
0
0
0
0
0
0
0
0
0
0
0
0
0
0
0
0
0
0
0
0
0
0
0
0
0
0
0
0
0
0
0
0
0
0
0
0
0
0
0
0
0
0
0
0
0
0
0
0
0
0
0
0
0
0
0
0
0
0
0
0
0
0
0
0
0
0
0
0
0
0
0
0
0
0
0
0
0
0
0
0
0
0
0
0
0
0
0
0
0
0
0
0
0
0
0
0
0
0
0
0
0
0
0
0
0
0
0
0
0
0
0
0
0
0
0
0
0
0
0
0
0
0
0
0
0
0
0
0
0
0
0
0
0
0
0
0
0
0
0
0
0
0
0
0
0
0
0
0
0
0
0
0
0
0
0
0
0
0
0
0
0
0
0
0
0
0
0
0
0
0
0
0
0
0
0
0
0
0
0
0
0
0
0
0
0
0
0
0
0
0
0
0
0
0
0
0
0
0
0
0
0
0
0
0
0
0
0
0
0
0
0
0
0
0
0
0
0
0
0
0
0
0
0
0
0
0
0
0
0
0
0
0
0
0
0
0
0
0
0
0
0
0
0
0
0
0
0
0
0
0
0
0
0
0
0
0
0
0
0
0
0
0
0
0
0
0
0
0
0
0
0
0
0
0
0
0
0
0
0
0
0
0
0
0
0
0
0
0
0
0
0
0
0
0
0
0
0
0
0
0
0
0
0
0
0
0
0
0
0
0
0
0
0
0
0
0
0
0
0
0
0
0
0
0
0
0
0
0
0
0
0
0
0
0
0
0
0
0
0
0
0
0
0
0
0
0
0
0
0
0
0
0
0
0
0
0
0
0
0
0
0
0
0
0
0
0
0
0
0
0
0
0
0
0
0
0
0
0
0
0
0
0
0
0
0
0
0
0
0
0
0
0
0
0
0
0
0
0
0
0
0
0
0
0
0
0
0
0
0
0
0
0
0
0
0
0
0
0
0
0
0
0
0
0
0
0
0
0
0
0
0
0
0
0
0
0
0
0
0
0
0
0
0
0
0
0
0
0
0
0
0
0
0
0
0
0
0
0
0
0
0
0
0
0
0
0
0
0
0
0
0
0
0
0
0
0
0
0
0
0
0
0
0
0
0
0
0
0
0
0
0
0
0
0
0
0
0
0
0
0
0
0
0
0
0
0
0
0
0
0
0
0
0
0
0
0
0
0
0
0
0
0
0
0
0
0
0
0
0
0
0
0
0
0
0
0
0
0
0
0
0
0
0
0
0
0
0
0
0
0
0
0
0
0
0
0
0
0
0
0
0
0
0
0
0
0
0
0
0
0
0
0
0
0
0
0
0
0
0
0
0
0
0
0
0
0
0
0
0
0
0
0
0
0
0
0
0
0
0
0
0
0
0
0
0
0
0
0
0
0
0
0
0
0
0
0
0
0
0
0
0
0
0
0
0
0
0
0
0
0
0
0
0
0
0
0
0
0
0
0
0
0
0
0
0
0
0
0
0
0
0
0
0
0
0
0
0
0
0
0
0
0
0
0
0
0
0
0
0
0
0
0
0
0
0
0
0
0
0
0
0
0
0
0
0
0
0
0
0
0
0
0
0
0
0
0
0
0
0
0
0
0
0
0
0
0
0
0
0
0
0
0
0
0
0
0
0
0
0
0
0
0
0
0
0
0
0
0
0
0
0
0
0
0
0
0
0
0
0
0
0
0
0
0
0
0
0
0
0
0
0
0
0
0
0
0
0
0
0
0
0
0
0
0
0
0
0
0
0
0
0
0
0
0
0
0
0
0
0
0
0
0
0
0
0
0
0
0
0
0
0
0
0
0
0
0
0
0
0
0
0
0
0
0
0
0
0
0
0
0
0
0
0
0
0
0
0
0
0
0
0
0
0
0
0
0
0
0
0
0
0
0
0
0
0
0
0
0
0
0
0
0
0
0
0
0
0
0
0
0
0
0
0
0
0
0
0
0
0
0
0
0
0
0
0
0
0
0
0
0
0
0
0
0
0
0
0
0
0
0
0
0
0
0
0
0
0
0
0
0
0
0
0
0
0
0
0
0
0
0
0
0
0
0
0
0
0
0
0
0
0
0
0
0
0
0
0
0
0
0
0
0
0
0
0
0
0
0
0
0
0
0
0
0
0
0
0
0
0
0
0
0
0
0
0
0
0
0
0
0
0
0
0
0
0
0
0
0
0
0
0
0
0
0
0
0
0
0
0
0
0
0
0
0
0
0
0
0
0
0
0
0
0
0
0
0
0
0
0
0
0
0
0
0
0
0
0
0
0
0
0
0
0
0
0
0
0
0
0
0
0
0
0
0
0
0
0
0
0
0
0
0
0
0
0
0
0
0
0
0
0
0
0
0
0
0
0
0
0
0
0
0
0
0
0
0
0
0
0
0
0
0
0
0
0
0
0
0
0
0
0
0
0
0
0
0
0
0
0
0
0
0
0
0
0
0
0
0
0
0
0
0
0
0
0
0
0
0
0
0
0
0
0
0
0
0
0
0
0
0
0
0
0
0
0
0
0
0
0
0
0
0
0
0
0
0
0
0
0
0
0
0
0
0
0
0
0
0
0
0
0
0
0
0
0
0
0
0
0
0
0
0
0
0
0
0
0
0
0
0
0
0
0
0
0
0
0
0
0
0
0
0
0
0
0
0
0
0
0
0
0
0
0
0
0
0
0
0
0
0
0
0
0
0
0
0
0
0
0
0
0
0
0
0
0
0
0
0
0
0
0
0
0
0
0
0
0
0
0
0
0
0
0
0
0
0
0
0
0
0
0
0
0
0
0
0
0
0
0
0
0
0
0
0
0
0
0
0
0
0
0
0
0
0
0
0
0
0
0
0
0
0
0
0
0
0
0
0
0
0
0
0
0
0
0
0
0
0
0
0
0
0
0
0
0
0
0
0
0
0
0
0
0
0
0
0
0
0
0
0
0
0
0
0
0
0
0
0
0
0
0
0
0
0
0
0
0
0
0
0
0
0
0
0
0
0
0
0
0
0
0
0
0
0
0
0
0
0
0
0
0
0
0
0
0
0
0
0
0
0
0
0
0
0
0
0
0
0
0
0
0
0
0
0
0
0
0
0
0
0
0
0
0
0
0
0
0
0
0
0
0
0
0
0
0
0
0
0
0
0
0
0
0
0
0
0
0
0
0
0
0
0
0
0
0
0
0
0
0
0
0
0
0
0
0
0
0
1.5173769e-38
3.0258626e-38
2.9805442e-36
3.2027809e-40
6.6504586e-44
2.1401842e-43
1.5173489e-38
1.6888734e-49
9.8924754e-49
6.6503428e-44
1.7969125e-56
2.0257833e-54
1.688853e-49
-1.0513653e-50
1.254746e-55
1.0513546e-50
-6.3295049e-48
3.5658308e-48
2.7531605e-48
-9.798e-43
2.5266689e-43
7.2712678e-43
1.1783171e-38
8.6530633e-38
1.823796e-40
3.0050265e-43
9.2089792e-43
3.0257396e-38
8.8678586e-45
6.8656896e-48
2.7639917e-47
5.1448657e-43
6.7078056e-53
4.3840256e-52
7.8544317e-48
1.92086e-59
3.1825236e-57
6.9100637e-53
-1.9260146e-48
8.8263414e-53
1.9259265e-48
-4.4246749e-46
1.300797e-47
4.3109934e-46
-2.7585337e-41
9.2703026e-43
2.6910517e-41
5.0618752e-38
1.6871908e-36
-1.6545916e-37
9.6590545e-45
4.3099084e-44
1.0232157e-42
2.9137992e-46
2.1775346e-49
5.6388388e-49
9.6859128e-45
3.3291491e-54
9.8043198e-54
2.1817873e-49
1.4522508e-60
1.6666796e-58
3.3321635e-54
-1.008032e-49
5.8355955e-54
1.0088564e-49
-2.8599476e-47
8.1293687e-49
4.0693706e-47
-6.3936569e-43
3.4881405e-44
1.5314859e-42
1.5970543e-41
6.2428158e-38
-4.123115e-41
9.511884e-49
5.5847285e-48
4.3092522e-44
2.5680811e-50
4.4824738e-37
2.7986108e-36
9.727369e-35
1.4780599e-39
1.9337291e-37
5.8069013e-36
7.5921353e-45
1.2542282e-39
1.2281787e-40
-5.1889332e-53
1.1691037e-45
6.4230316e-45
-3.2834746e-48
8.210397e-52
4.0955409e-48
-6.3715647e-44
2.0217706e-47
9.8573551e-44
3.8048882e-43
1.2120131e-41
-1.2314068e-45
1.1204387e-50
1.1460711e-51
5.5723746e-48
3.3595081e-54
6.4873394e-38
5.6211293e-38
1.3572729e-35
5.4474055e-39
9.2869754e-38
5.0895814e-36
1.6193785e-43
2.8149774e-39
8.6886254e-38
-2.7759691e-54
6.4677449e-45
2.6658954e-43
-1.3073062e-51
6.3344383e-55
2.1246126e-51
-1.1041443e-47
9.245805e-51
3.1248595e-47
7.6622531e-47
3.8073337e-43
-3.3221456e-46
1.0506995e-51
3.3980717e-55
9.5031201e-53
5.4073636e-58
2.3165111e-39
1.1964087e-40
2.1630611e-37
2.8629025e-39
4.4063037e-39
8.1077432e-37
1.4952439e-44
5.4515043e-41
1.4528442e-38
-6.6599331e-57
9.0757285e-46
3.1966159e-44
-6.2607938e-55
4.8285807e-58
1.1816027e-54
-2.7374927e-51
4.8962062e-54
1.197619e-50
2.236705e-50
7.6702037e-47
-1.0461069e-49
3.3730855e-55
1.3627988e-58
2.3622773e-57
6.4089515e-62
1.0883084e-42
5.4731924e-44
1.0289762e-40
3.8411349e-41
3.3590289e-42
1.0208897e-38
1.7043497e-46
3.4710984e-44
1.7522831e-40
-1.744713e-62
6.4437173e-47
1.9898404e-45
-3.6988805e-58
3.9023583e-61
7.4731857e-58
-9.5578925e-55
3.1067908e-57
5.8470019e-54
4.2780961e-54
2.2405559e-50
-4.374449e-53
1.2725653e-58
8.8889541e-60
-9.128113e-71
1.3216249e-61
5.6639275e-46
5.250281e-44
1.6627217e-45
1.2265398e-44
3.254588e-42
9.0464054e-44
4.238024e-50
4.5932458e-44
1.0973119e-45
-2.2815779e-63
1.2136806e-46
2.9178116e-48
-2.6442587e-61
5.4841389e-61
3.5295551e-64
-4.4031657e-58
3.5431314e-57
2.3341717e-60
4.2963618e-54
-2.0883201e-56
2.2686745e-57
3.5072647e-29
4.0392024e-29
2.223554e-27
1.570738e-30
3.8609129e-28
6.040315e-28
5.7163695e-26
3.0528928e-25
9.1286849e-25
9.7938466e-23
6.4303289e-25
2.7659702e-23
4.0285453e-21
-2.00265e-53
6.7622714e-25
9.2951157e-23
-2.3314406e-48
1.121302e-52
5.0919176e-48
-2.2410662e-43
7.1483492e-48
9.5122392e-43
1.9251237e-43
8.6530213e-38
3.3955653e-45
2.796655e-34
9.2881223e-34
4.0390778e-29
3.7028294e-35
5.1546714e-29
1.0631101e-28
7.9153917e-27
8.9956296e-27
9.1849184e-29
2.6106693e-24
7.3291373e-27
1.5035934e-27
5.0229979e-23
-2.3464349e-50
2.9953601e-28
3.7801287e-24
-3.756634e-46
3.3677903e-50
8.0671288e-46
-1.2596099e-41
1.4798162e-45
3.9504769e-41
3.4446522e-41
1.7013678e-36
-1.4223867e-38
1.1288531e-26
5.4967899e-26
1.6987066e-24
1.757259e-27
8.8666854e-31
3.1932721e-28
1.7716413e-26
3.2924273e-31
1.2038803e-32
2.7119736e-28
2.0338545e-31
1.6159326e-31
1.5035577e-27
-9.1491907e-45
1.5192178e-31
2.7736125e-27
-4.6029366e-41
2.9625962e-44
4.5990632e-41
-2.9013426e-36
1.1898344e-40
2.9011791e-36
1.0701793e-31
1.3748032e-31
-2.4450108e-31
9.1962361e-28
3.3387093e-28
1.4672345e-25
1.9304919e-29
3.8825322e-32
4.426151e-30
1.5852645e-27
9.3485742e-35
7.4289622e-38
5.0739816e-32
2.0626806e-35
2.7212721e-35
1.6163891e-31
-3.5161679e-34
0
1.522965e-31
-1.2749058e-34
3.0059148e-33
1.5842718e-31
-2.1720734e-33
7.1957595e-33
3.8831835e-32
4.5447836e-31
8.3516586e-30
-4.2900806e-33
1.0116605e-31
4.1568334e-32
4.0525851e-28
2.0680455e-31
1.7732458e-34
7.5800222e-34
4.4080532e-30
5.9067103e-38
3.9572591e-36
1.6859126e-34
3.2862436e-39
7.758914e-37
2.6658022e-35
-2.9186854e-36
1.5154409e-35
1.4819523e-33
-6.9071833e-34
6.5678187e-34
2.1839578e-32
-5.4064337e-30
4.9945518e-31
1.8501767e-29
3.6569901e-29
1.467962e-27
-1.1504043e-32
3.1209418e-36
1.0832595e-35
4.1536025e-32
1.8355201e-35
4.7185918e-38
2.744881e-37
7.6118457e-34
1.6021085e-38
9.0002122e-39
5.5084107e-36
3.2529385e-38
6.3355056e-36
2.6061296e-34
-3.4181509e-37
3.7453921e-37
1.5686302e-34
-1.918254e-34
6.695615e-35
2.3934994e-33
-5.2330694e-31
1.7863792e-32
3.0627133e-30
3.2323598e-31
1.4368616e-28
-5.5710298e-34
1.057584e-39
3.1588643e-49
1.0827416e-35
4.1215145e-39
1.514398e-40
1.2714838e-40
2.7542187e-37
3.1803808e-40
1.4103468e-40
5.8939146e-38
3.4101724e-39
8.0506944e-38
2.9663398e-35
-1.1055703e-38
1.3299112e-39
2.5865733e-36
-2.2404388e-35
4.905664e-36
3.6966375e-34
-2.0770013e-33
2.4766635e-35
6.3986897e-32
9.559422e-35
5.7389799e-31
-2.8659457e-36
2.7654772e-42
5.2702735e-39
1.5889347e-42
2.0694103e-40
4.8602218e-43
1.2581417e-40
3.8728169e-42
2.4753101e-41
3.3408294e-39
1.0080937e-40
3.1141539e-41
2.9881064e-37
5.6645464e-39
-1.6206008e-38
3.2479189e-38
6.1678705e-40
-1.1826859e-37
1.657701e-35
3.8588856e-37
-3.4617948e-37
5.0038673e-35
1.1934444e-36
9.2917808e-35
-5.6968653e-40
2.3308019e-36
3.5883191e-30
3.6162389e-28
5.5951921e-28
1.2967541e-27
2.2048175e-26
2.3297697e-26
1.7761999e-24
8.7396648e-24
2.2608407e-23
2.5544537e-21
3.5576062e-23
5.1589044e-22
4.586976e-20
0
5.8884649e-24
5.6357368e-22
-3.8157855e-19
1.3054686e-21
1.2902097e-19
-1.6825532e-19
6.2768094e-19
8.1578768e-17
4.8194773e-21
7.656696e-19
-9.8002551e-39
0
1.3011921e-23
1.1208717e-21
4.7939263e-23
9.6179603e-27
4.1771082e-26
3.6618489e-24
3.1987816e-25
1.8371826e-25
1.0360132e-22
5.5604327e-25
0
1.531364e-21
-3.2465917e-24
5.7819538e-27
5.3238396e-23
-4.5953913e-24
0
2.5463819e-21
-2.7393447e-26
0
6.2767638e-19
7.4396609e-26
4.8193708e-21
4.6715356e-27
4.1488624e-28
2.6738551e-27
9.8297093e-26
1.4575884e-23
1.5894036e-27
5.5626387e-28
4.3593808e-25
4.6717106e-26
6.4917527e-26
2.8353699e-23
3.6571952e-28
3.2068286e-28
5.7649848e-24
-5.1455973e-26
0
1.8740198e-25
-4.277081e-26
1.0582306e-27
2.4223315e-23
-2.5995808e-31
7.1545598e-26
1.228343e-23
1.3220768e-30
7.4395132e-26
3.3073978e-32
2.4321242e-28
3.8636401e-27
1.1297284e-25
2.852982e-28
1.8619011e-29
9.2112271e-31
6.5135153e-27
1.1833785e-27
1.2891465e-28
6.6915252e-25
2.3075743e-30
4.1522093e-30
7.5342019e-26
-6.0056619e-29
0
8.4219275e-28
-8.4944878e-29
3.4424215e-30
2.408287e-26
-5.2481963e-33
0
2.0207279e-26
1.7148396e-29
1.1370959e-30
6.2443653e-32
6.9518057e-31
3.9689606e-30
4.340791e-27
7.0099694e-30
3.405602e-32
8.3305815e-34
1.0676419e-29
6.7212863e-31
0
3.7042315e-28
1.0839273e-32
1.2291983e-32
1.2849145e-28
-1.2257541e-33
0
1.5849594e-30
-1.1799891e-32
1.3540804e-34
3.4909817e-30
-1.6636551e-29
3.0036287e-31
1.1550639e-28
1.3822854e-28
7.5474295e-27
-7.0283679e-31
1.8616114e-32
2.9899475e-31
1.8014529e-28
2.6016966e-31
1.6043861e-34
1.370051e-34
1.3707131e-31
8.623399e-35
1.6770477e-35
7.0680964e-32
8.976169e-37
3.2733464e-36
1.2905857e-32
-4.2589743e-36
1.2614578e-37
2.8672778e-33
-9.047853e-34
2.0197146e-34
1.7764978e-32
-1.9680599e-30
6.9623213e-32
1.781202e-29
1.2184875e-30
7.3450397e-28
-2.594563e-32
1.1294918e-33
1.1289616e-32
9.2322819e-30
1.2578671e-32
1.4887093e-37
1.4809759e-34
5.3041529e-33
3.3360709e-38
8.6109118e-40
1.6973389e-35
6.3155426e-38
3.0842344e-36
2.7784182e-34
-6.4815237e-38
2.5902492e-38
2.5900918e-35
-1.1989948e-34
1.7296918e-35
2.3674705e-33
-8.4042928e-33
1.5775509e-34
4.1033964e-31
0
3.0596821e-30
-4.5144019e-34
1.1215846e-35
6.5808953e-32
8.0694024e-35
1.3845492e-33
1.5112443e-38
5.8824185e-34
1.8837865e-35
4.3108541e-41
1.9494412e-38
5.4622045e-40
3.9000904e-39
1.9156205e-35
3.1039867e-37
-1.8320827e-38
1.1830932e-36
2.0434277e-38
-3.3219932e-36
7.3288941e-35
1.830247e-36
-1.246949e-36
9.0200127e-34
2.1140078e-35
4.513914e-34
-1.707282e-37
8.5771349e-36
3.7074477e-30
2.0498556e-30
5.4172994e-28
9.9599263e-30
8.8772831e-30
2.4334812e-29
1.7761684e-24
1.5817663e-23
6.3591069e-23
6.2352239e-21
1.2039008e-22
6.1848146e-22
9.4582153e-20
2.5105169e-26
3.1785206e-25
9.0366683e-22
-2.9902684e-19
-4.5859728e-27
4.2813262e-19
-7.4585755e-21
2.2697768e-18
1.4785685e-16
1.2072725e-21
1.4098805e-18
-1.3087876e-21
0
1.0380225e-21
4.1190075e-20
9.8240571e-23
1.7504346e-25
6.6226521e-25
6.6896967e-23
3.1300639e-24
2.3076798e-24
5.2726649e-22
1.1521518e-23
7.741386e-24
9.2302528e-21
-9.6142414e-29
1.8058946e-24
2.7517267e-22
-1.4753375e-20
1.364357e-25
1.7299659e-20
9.0437522e-21
0
5.5512962e-17
2.2042244e-20
4.995015e-18
0
2.9659863e-26
4.0360709e-24
7.9536099e-22
1.7928608e-22
3.9340971e-26
7.7296735e-26
1.5680632e-23
1.1218213e-24
1.1561206e-24
3.2063534e-22
1.0528917e-24
9.5689253e-25
7.8185055e-22
-2.9931173e-29
3.8053038e-26
5.3397482e-23
-2.4032565e-24
4.9303734e-29
2.6761491e-23
-2.9733949e-22
5.1353785e-26
1.6617822e-21
4.5698894e-24
2.8198643e-19
1.3263619e-25
6.991502e-25
1.1891335e-24
3.493244e-22
5.5470124e-25
7.9150197e-27
1.7413894e-26
3.4116585e-24
1.2616883e-26
3.645535e-28
5.3525037e-24
1.9056637e-26
3.0555426e-27
1.6340401e-23
-6.1770677e-30
5.9023567e-29
1.0545511e-24
-1.2868854e-29
8.8565421e-29
2.2585972e-26
-1.9914771e-27
9.0366029e-28
7.1339553e-26
4.6717823e-27
4.5620325e-24
1.2035756e-27
2.2608772e-26
7.2835485e-27
1.3702074e-23
2.8237744e-28
1.1589538e-29
4.5568261e-29
1.1163671e-25
8.6104197e-30
8.454644e-33
5.2902434e-27
4.5664201e-30
7.8134977e-31
8.9761616e-27
-2.8438689e-30
0
3.9872288e-27
-1.9038639e-27
1.282924e-28
7.3886429e-27
-1.9930794e-27
2.0845112e-26
1.5187286e-24
9.276569e-27
1.3537318e-24
7.784376e-29
5.3362991e-30
0
3.0892685e-26
6.5251185e-29
7.5578947e-32
0
9.0367716e-29
2.6314476e-32
2.740427e-33
4.0780636e-29
2.8638838e-34
3.4394079e-35
8.2440667e-31
-4.2223109e-33
0
1.0345204e-30
-1.6063626e-28
5.6131016e-31
5.307418e-28
-9.1383174e-29
7.2868287e-29
9.4725089e-26
1.0802962e-29
4.0519912e-26
-3.6506831e-31
1.3047985e-33
0
1.2066572e-28
2.8387971e-31
1.1780368e-34
5.7336341e-35
4.7623741e-32
3.7393424e-34
3.0479506e-35
1.6327022e-31
3.0974569e-37
4.4000512e-35
3.96634e-33
-1.4115921e-35
2.4835084e-39
7.1564226e-34
-2.9566726e-31
6.9302683e-35
1.5543426e-30
-8.7337568e-32
1.9875887e-32
1.6635708e-28
0
4.9588722e-29
-8.7297045e-33
1.3067264e-35
5.1943449e-31
1.3169192e-33
1.2043346e-32
1.3550137e-37
2.6968766e-33
7.7621547e-35
5.7323084e-38
3.0121878e-35
4.8292033e-37
6.4245764e-38
1.6836245e-34
2.3659299e-36
-6.9031133e-39
4.4908535e-36
5.8714881e-38
-3.9447771e-35
1.8199638e-34
2.6213869e-36
-2.395675e-35
2.0603448e-32
2.7379458e-34
1.9514513e-32
-5.3200147e-36
2.419918e-34
8.4584363e-20
-4.6086491e-20
2.3656751e-16
4.7629323e-17
0
-9.8785217e-21
6.5219688e-17
3.8469064e-23
5.7468426e-23
6.8688878e-21
1.8083241e-24
1.2322831e-25
9.4643439e-20
-1.5959638e-17
-8.5774621e-25
1.5960487e-17
-6.8781739e-17
1.7031528e-17
4.3527589e-15
-1.4152264e-18
-6.7107967e-18
9.1747467e-17
-1.2203559e-19
8.2221424e-19
-2.9174478e-21
2.6645003e-24
-4.2033608e-24
1.9933392e-22
-5.3514075e-21
1.297844e-22
0
2.4964011e-20
1.9765284e-22
4.050751e-22
3.6141617e-20
5.1553103e-25
1.3981106e-25
9.4440238e-21
0
-1.7290075e-24
2.2143749e-22
1.5117254e-18
0
6.1393146e-16
-1.2725541e-19
9.3981955e-20
2.1071689e-16
-2.0975606e-20
1.2149728e-17
-1.8784322e-21
2.0078347e-24
1.3363879e-23
5.9239132e-22
-6.4501243e-23
1.5986763e-24
7.0227852e-25
3.7407914e-22
2.2454574e-24
1.8465301e-25
7.0145745e-22
4.2865077e-25
3.7960541e-25
7.983223e-22
0
-8.7570838e-25
6.7848853e-23
2.0509035e-20
5.5084383e-22
1.225307e-17
0
1.0660125e-23
5.0885348e-19
1.3159111e-23
1.6884581e-18
5.9683469e-25
3.6197519e-23
9.1601726e-23
5.0110845e-21
0
1.0783277e-25
4.8832163e-25
1.239794e-22
7.5349603e-26
1.8449001e-26
2.9298113e-23
6.4748233e-25
1.4997005e-24
1.5178397e-22
2.0609951e-26
-2.5524558e-26
2.0715364e-23
2.4927606e-25
9.0735247e-27
5.5062843e-22
1.3404005e-27
8.8298868e-26
1.0950393e-23
8.5561355e-26
1.7932899e-23
2.7566114e-27
2.1111409e-24
4.0610043e-25
3.6000247e-22
-2.6958833e-24
4.2644952e-27
2.5979101e-27
5.3435667e-24
3.0649954e-27
5.9455341e-28
1.4149844e-24
2.5502586e-26
4.6328791e-27
8.3500168e-24
5.8176303e-29
-1.1674973e-28
8.7671389e-25
6.0415313e-30
1.1908438e-29
1.7302843e-26
-2.0402465e-27
3.2542172e-25
2.899123e-23
4.3983587e-25
5.477725e-23
8.7320805e-27
4.3708103e-28
0
1.1177598e-24
-7.0175641e-27
1.2821354e-29
0
3.739826e-27
1.3138919e-29
3.6651225e-31
6.2940443e-27
9.9591108e-30
6.0942176e-31
8.6321534e-27
2.2454574e-31
0
4.8660576e-27
-1.5923042e-28
1.195839e-29
1.4233889e-27
-4.0792229e-28
6.4378272e-28
1.3950345e-24
2.2587477e-28
1.3612784e-24
1.8199186e-29
3.2160876e-32
0
1.2257693e-27
-6.452932e-30
1.2992519e-33
1.7553634e-34
5.2003918e-31
1.0247068e-33
9.079024e-35
5.3125764e-31
5.3969385e-34
4.8274451e-36
6.1478251e-31
-3.7925026e-33
0
1.825861e-29
-4.3114178e-30
1.2285774e-32
4.5719452e-29
-2.6445804e-30
0
9.4119214e-27
0
2.0644205e-27
8.7782632e-32
7.3577626e-35
1.6972846e-30
-3.4082925e-33
6.1194334e-32
5.9695134e-37
1.1208806e-32
2.4819635e-34
2.2625947e-37
1.2097371e-34
1.5595007e-36
1.2341807e-36
9.1714411e-34
1.0120121e-35
-8.5765935e-36
1.59084e-32
9.3910002e-35
-1.5440316e-33
1.248842e-31
1.1104284e-33
-4.1841904e-34
2.2380586e-30
2.099973e-32
6.5141927e-31
1.6891448e-35
5.574881e-33
0
0
8.2767254e-16
1.6808407e-16
6.9499139e-19
3.809158e-19
1.1587578e-16
7.2283734e-19
8.2084172e-24
4.1883511e-21
2.5402505e-17
-6.8393564e-19
1.181085e-16
-4.3598864e-16
-5.3151963e-19
2.543253e-14
-1.066503e-16
9.2727297e-17
3.8567369e-15
-7.6445482e-18
-7.3337738e-18
6.4141045e-20
-1.6959257e-19
1.8086319e-16
3.8390881e-18
3.6300276e-21
0
3.6384065e-17
-3.6387721e-17
1.1842194e-21
0
8.7349491e-20
5.4350986e-20
3.2070873e-23
7.0822256e-21
1.1549706e-18
-2.9479686e-19
1.0649818e-16
0
-4.0781917e-24
6.237105e-19
9.816866e-18
0
5.7064356e-15
-4.2794727e-19
-1.9357432e-18
2.0669595e-16
-1.6295328e-19
1.4324983e-17
0
1.317623e-21
3.1456095e-21
9.5529744e-20
0
8.9339591e-23
2.2657019e-23
8.5621859e-21
5.6408556e-22
1.0265148e-22
2.3311539e-20
8.4497263e-21
-1.5026234e-22
1.5590337e-18
0
-7.7623814e-26
8.5140255e-21
5.4162243e-19
1.8871728e-20
1.3600491e-16
-7.0467531e-21
-1.2508674e-22
5.7495463e-18
-2.1759703e-23
1.8488965e-18
-7.8775938e-22
1.5078584e-21
2.0817939e-21
6.0266511e-20
-1.4299555e-21
2.8959556e-24
9.3919646e-24
2.4790366e-21
1.067065e-24
9.4452414e-26
3.3204046e-22
8.1305821e-27
-4.8737608e-26
3.1062974e-24
2.412301e-27
-6.377792e-26
2.1101753e-23
1.1443631e-22
1.2758357e-24
1.930685e-20
-1.1495262e-28
-6.3291985e-26
5.2408907e-25
-1.9608288e-24
1.9562144e-25
-1.8021309e-24
1.1787453e-23
1.5055247e-23
4.8274488e-21
-6.8822617e-22
6.9615822e-26
1.442823e-27
2.786213e-23
3.1299974e-26
5.0200082e-27
1.259039e-23
1.0388087e-25
5.5097671e-26
2.1214517e-23
2.9268302e-27
-6.8442232e-27
1.3000036e-24
1.10704e-26
2.9600189e-28
1.3213026e-24
4.0957112e-26
3.6694836e-25
1.1682408e-22
-3.2541199e-27
9.2263427e-22
-3.4878563e-26
1.1329285e-27
0
2.0473469e-23
-3.8858864e-24
6.312291e-29
0
1.0930418e-26
6.0209662e-28
4.7863921e-29
3.0783172e-25
3.2750627e-28
0
1.2624139e-25
2.4915787e-28
-1.9753692e-28
8.3530356e-26
1.1256673e-28
2.8837899e-28
4.2489192e-26
4.3806383e-27
4.7539501e-27
1.0309851e-23
1.8135981e-29
9.120651e-24
-7.9056993e-28
2.0063285e-31
4.1011522e-30
1.8574073e-26
-1.0648725e-27
5.3834048e-32
0
1.1549296e-29
3.114651e-31
0
1.9889632e-28
1.6469177e-31
0
1.5498622e-28
1.2108098e-29
-6.4537963e-31
6.2141143e-27
3.0306827e-30
5.8759968e-31
1.5667246e-27
1.566037e-28
4.9391814e-29
2.8754969e-25
0
2.1011626e-27
-2.2506378e-30
1.8410889e-34
6.3308489e-30
-7.2425071e-31
2.0749914e-31
8.5786812e-35
2.5065272e-32
6.3552432e-34
4.4910657e-35
3.0276668e-32
2.7116903e-34
4.0062266e-34
3.0438474e-31
1.7069113e-33
1.586738e-32
1.2787231e-29
9.6748908e-33
1.3655057e-32
8.7455487e-30
6.8823148e-32
7.7319853e-32
1.6683691e-28
9.0915657e-31
1.5436147e-29
-5.0415835e-33
5.2885357e-32
-3.7962493e-17
-2.5984632e-17
1.6082333e-15
2.8110598e-16
4.8641434e-19
0
3.7686647e-17
5.0840931e-19
-9.5569037e-23
7.5899145e-21
-6.0920846e-16
5.5089156e-18
6.000238e-17
-4.6151489e-15
5.1112396e-15
3.9531455e-14
-6.5630262e-18
-1.2725869e-15
2.7738238e-15
-4.7817674e-18
-1.7300241e-18
4.5369596e-21
-2.6008368e-18
8.9770568e-17
-2.5624277e-20
0
6.3174027e-19
1.0957021e-15
-2.3998546e-17
4.8354683e-21
-5.6018466e-22
3.5481584e-19
3.2716813e-20
-3.8777194e-21
7.2178148e-21
3.7288506e-18
6.8568472e-18
2.517718e-16
-1.0649371e-16
1.7948775e-15
3.9247666e-14
-7.493244e-17
-1.3584504e-16
6.0996015e-15
-8.2347079e-19
-2.5791686e-18
2.3120275e-17
-3.3584672e-19
1.3111083e-17
-1.7902149e-19
4.3024644e-24
1.0976598e-20
2.7226202e-18
-1.9917435e-18
7.5919399e-22
-8.6406201e-23
2.1872437e-20
-3.5375068e-20
-1.0779858e-22
5.4334137e-19
-1.3781851e-20
8.3205416e-20
3.1275011e-17
9.9216667e-20
1.6646121e-18
1.7931084e-15
-1.3100459e-19
-1.9252829e-23
3.90141e-19
-9.7216615e-20
-1.352644e-23
1.5602846e-17
-2.2978824e-22
6.8964721e-19
-6.4918217e-23
2.4486316e-21
3.9920309e-21
1.5483325e-19
0
9.1040026e-24
-3.9178905e-26
7.3147346e-21
-1.9760361e-24
3.0678844e-26
1.1342128e-21
-4.0902488e-23
2.7943185e-23
8.3219743e-20
1.3627965e-22
1.1077718e-21
1.6633486e-18
2.8936182e-25
-6.494473e-27
1.9423646e-20
-7.4488596e-27
-1.2707106e-23
1.4009658e-25
-1.3115628e-22
8.2070612e-25
-9.9062945e-23
7.3755716e-23
5.1530971e-23
1.5069208e-20
-1.4900316e-21
4.60189e-25
1.6635844e-27
1.0148728e-22
-2.0922321e-27
4.0438656e-26
1.1250881e-22
-2.5587141e-26
2.455952e-27
4.9185881e-23
5.1486932e-26
1.8809454e-25
1.1088282e-21
1.1078886e-27
6.3467003e-29
1.4071689e-24
-3.241952e-23
-2.1046492e-24
3.8827856e-22
-4.9910738e-24
7.9114316e-21
-1.7216873e-24
3.0268102e-26
1.1403203e-25
2.2326565e-22
-7.6305242e-23
2.2182375e-28
3.5027083e-30
7.2450196e-26
-1.6015227e-27
1.3531072e-28
1.1415303e-24
-6.6925268e-29
1.9075033e-27
1.1792505e-25
1.9438554e-28
9.6580242e-28
2.8161693e-25
1.6766148e-27
8.5751704e-28
8.5669841e-26
-2.0528346e-25
-3.0077699e-26
5.8556342e-23
-2.183906e-27
8.0365571e-23
-2.530623e-26
2.1851338e-28
1.272476e-27
3.0344721e-24
-7.789744e-25
3.8958471e-31
1.0590139e-31
2.3515904e-28
-9.1659516e-30
0
8.89051e-28
-2.6814888e-29
2.7142329e-30
2.7877335e-27
2.3387356e-28
7.8571138e-28
1.6831073e-26
4.7551626e-28
1.4962021e-28
2.7518953e-26
-3.504622e-32
-3.2904812e-28
6.447629e-25
-1.7555547e-30
3.9459088e-29
-7.3986686e-29
1.7852215e-32
2.0804959e-27
-3.6089296e-27
2.8079642e-27
8.7124745e-34
1.2098248e-30
1.1883835e-31
-5.8353975e-32
4.263667e-30
3.7098628e-32
-3.9089484e-30
7.4024983e-29
1.3315391e-30
1.054596e-29
1.0051617e-27
4.2307408e-29
8.1533147e-30
1.3466715e-27
1.0840411e-29
1.3514194e-29
1.4767028e-26
-6.7588514e-33
1.5938548e-28
-4.2685069e-31
-3.0341606e-31
-8.4338007e-17
-8.4251596e-16
2.148319e-15
5.7098073e-16
0
0
9.3491968e-17
2.4468184e-19
0
9.9108176e-19
6.1399485e-17
-1.0386762e-18
1.1126377e-18
-2.749118e-15
2.8982495e-14
2.5598965e-14
-5.5870856e-22
-1.543623e-15
2.9604252e-15
-8.9993619e-22
-5.6628407e-21
2.171565e-21
-4.2941554e-19
9.0190715e-17
-7.4231775e-25
1.6516631e-17
-5.3809145e-17
2.4261891e-15
-2.5854308e-15
1.8732166e-19
0
1.087472e-17
1.4165975e-19
-5.8274267e-20
1.3551138e-19
5.5782726e-17
2.670517e-18
8.7991517e-17
-2.6099356e-15
1.5834956e-14
6.9851751e-14
-2.6614104e-17
-2.567178e-18
4.395796e-15
-4.6272483e-19
-3.0960154e-18
5.1191215e-20
-3.7248944e-19
9.4325725e-18
0
9.9885579e-25
1.3892854e-19
1.7589019e-17
-6.8812645e-17
6.1449047e-21
-4.5935312e-22
2.300832e-20
1.1626018e-19
-8.4491202e-21
1.1411882e-18
-1.6492991e-16
4.7042367e-18
1.1405847e-16
-6.2157984e-19
4.1669387e-15
6.3783992e-14
-9.5195134e-19
-1.8432965e-18
3.1467454e-20
-2.1373752e-21
-1.9677684e-22
1.903272e-17
-4.8197256e-21
4.7060164e-20
-8.2501595e-22
4.5590972e-24
1.0867971e-19
5.2454124e-19
-3.315519e-19
1.6090126e-22
-4.7270796e-24
1.4486066e-20
-7.2538615e-20
-1.677202e-22
6.4459355e-20
-3.9804019e-19
6.0403141e-19
1.3467247e-17
7.8095488e-19
1.0552833e-17
4.1568792e-15
-1.5431649e-22
-5.5328128e-23
7.4686034e-17
-4.411055e-22
-1.8363535e-21
1.9628228e-21
-5.4802908e-21
3.6805486e-20
-4.6770244e-22
1.9076212e-21
4.8144989e-21
9.6806416e-20
0
2.0832452e-24
4.3623591e-25
1.5262858e-21
-3.3514042e-24
-2.6506907e-27
2.4492842e-21
-2.1188143e-21
1.5099025e-22
6.0604563e-19
4.3608207e-21
3.9304514e-20
1.0508164e-17
0
-3.0134828e-26
4.3069575e-21
-1.1592373e-21
-5.6127839e-23
2.3774763e-20
-1.3088161e-22
9.9426442e-20
-1.3150719e-23
1.6157299e-23
3.8947297e-23
5.188806e-21
-2.3388945e-21
2.2066358e-27
3.4162538e-28
1.0427463e-23
-1.9308784e-26
-2.6616271e-31
1.1595091e-24
-4.4908511e-24
4.5663332e-26
1.5553355e-22
7.8799287e-24
4.0141765e-23
3.9252293e-20
5.9163063e-28
1.357121e-28
7.9407922e-24
-1.6440892e-24
-2.7825005e-24
4.3691873e-22
-7.6513902e-28
1.6491844e-22
-6.8788803e-26
8.6953177e-27
1.989735e-26
7.7087404e-23
-4.2503455e-23
-8.9000259e-32
7.9938518e-30
1.0309511e-25
-5.0242178e-31
-8.5165904e-33
4.3377299e-29
-8.8527009e-27
9.5605186e-31
5.6880682e-26
1.0752902e-26
1.7964944e-27
4.0229087e-23
8.3448123e-28
5.3591916e-28
2.8540479e-26
-1.6452444e-31
-1.4733115e-26
1.8870428e-23
-7.7667749e-29
3.1633303e-29
-6.3545099e-28
5.3607731e-30
7.480527e-26
-4.4581018e-26
2.4921667e-27
-4.0220831e-32
7.9401128e-28
4.73055e-30
-3.1147474e-31
9.1029953e-30
1.2085505e-31
-2.7600401e-30
2.8744172e-29
9.573385e-31
2.3897726e-29
2.6560614e-27
7.5308796e-29
6.570577e-29
3.2204354e-27
6.2414523e-29
-4.1534141e-31
1.0192918e-28
-8.3354434e-32
1.1280929e-27
-8.9326137e-30
-3.0548128e-30
-6.378069e-18
-5.6834736e-16
9.9951581e-16
6.4003208e-17
-1.531056e-18
-1.2276267e-18
3.0874467e-16
1.2602488e-17
-2.4003355e-19
6.8376329e-19
6.186393e-16
-2.6972326e-20
4.0860445e-16
-2.8484823e-15
2.2444617e-14
1.8857433e-14
-1.4597737e-15
-1.1221071e-15
3.0685824e-15
-2.0263598e-16
-2.8226245e-18
5.3099168e-15
-5.8141155e-18
7.2155908e-15
-1.1021755e-21
-6.3483411e-18
-4.9431374e-17
9.8323913e-16
-9.405352e-16
-1.1003347e-19
-7.2080991e-20
1.59371e-17
2.4872115e-19
-1.8933783e-19
3.318234e-17
8.8487227e-17
-4.1162188e-21
1.8058282e-19
-4.1090312e-16
4.4784429e-14
5.9783853e-14
-6.7310785e-19
-2.7837659e-16
4.1354373e-15
2.9388245e-22
-3.4628183e-18
1.5683007e-20
-8.7300111e-21
3.6690203e-18
-4.2574371e-20
4.4401661e-20
5.0249124e-21
4.8751069e-18
-3.6767731e-17
-3.3382137e-21
-2.2349599e-21
4.9706738e-22
3.608036e-21
-1.5954154e-20
3.4207556e-19
1.1372311e-16
8.0688335e-21
3.2568573e-19
1.3267333e-15
2.3174917e-14
9.5502559e-14
-7.5912396e-18
-1.1680956e-16
8.1725915e-16
-1.3398128e-20
-5.4283687e-19
1.0597896e-17
-1.9110218e-20
3.1216588e-20
-4.4949718e-21
0
1.8877977e-20
4.0164399e-19
0
-4.2542083e-22
-1.2230987e-22
3.9517277e-20
0
-3.0905221e-20
6.7528009e-20
3.4275014e-18
2.0943894e-18
3.3392944e-18
8.5631227e-16
6.9328858e-15
8.1324324e-14
5.2591884e-19
-1.9633886e-17
1.7277291e-15
-1.7266599e-21
-2.8833314e-20
1.3679413e-20
-2.7284293e-20
1.0972683e-19
-1.5068429e-21
8.2423508e-22
3.170978e-22
1.4044362e-19
-5.6011376e-23
0
-2.72476e-23
2.4184794e-21
-1.5503811e-18
-1.9044867e-20
7.6888598e-19
-1.2547301e-18
3.7077753e-18
9.4687808e-17
1.4719834e-18
5.9110343e-17
6.8816362e-15
4.1028649e-19
-2.6388133e-22
1.3732463e-16
-3.9689053e-21
-2.1625477e-20
3.2066029e-19
-7.2905829e-22
1.566677e-19
-7.4712347e-23
5.6347631e-24
-9.9234182e-25
4.2514696e-21
-3.5277965e-22
-1.41978e-21
-2.9133083e-23
5.2122616e-22
-2.6526598e-22
-4.6417798e-27
1.1869577e-19
-8.1292609e-21
1.3937934e-21
3.7144025e-18
1.2414474e-20
1.1868657e-19
5.9010611e-17
0
7.0315975e-25
1.2157862e-20
-1.5711289e-23
-1.8720533e-23
7.0371633e-20
-2.6723755e-27
9.0235568e-22
-9.4866719e-25
3.5774432e-25
-2.2682521e-26
8.4387911e-23
-2.5149948e-23
0
-8.0546547e-25
8.5101373e-22
-3.5918385e-25
-4.7270964e-31
3.5459345e-25
-2.1653708e-23
5.5822842e-25
1.4145863e-21
3.3509321e-23
2.7466967e-22
1.183974e-19
5.4008711e-27
6.043801e-27
3.4230527e-23
-1.7811783e-31
-4.969774e-31
1.5530568e-25
-1.1592382e-27
2.8368197e-29
-1.4831881e-27
-3.616261e-28
1.6040568e-24
-7.5846814e-26
-1.4938252e-25
-7.6097334e-38
1.0512713e-23
-1.916874e-27
-1.8168259e-28
3.4566165e-28
-1.5064176e-28
-9.2964464e-26
6.5090045e-25
1.4666143e-28
1.4504762e-25
2.7687563e-22
4.0896142e-25
3.1732458e-29
1.5424516e-25
4.3877293e-29
-7.6358038e-30
2.722112e-28
-1.2604602e-28
9.6668759e-27
-5.1903369e-29
-4.5828863e-30
-7.5206075e-18
-1.0642439e-16
4.556226e-16
0
-2.2645775e-18
-9.7380332e-18
2.7901443e-16
1.4170256e-17
-2.512977e-18
7.0559327e-19
9.8647483e-16
2.3613854e-17
9.4249331e-16
-3.3839737e-15
4.2491347e-15
1.7099481e-14
-2.524008e-16
-6.2383879e-16
2.3607365e-15
1.6147293e-16
-1.9064151e-16
7.1960669e-15
-2.0912351e-15
3.0970526e-14
-3.4670023e-16
0
-1.8329175e-18
2.1487252e-17
0
-1.9178213e-18
-4.3731591e-21
5.4533353e-17
2.6574252e-18
-3.4570995e-19
1.055526e-16
2.6410406e-17
1.1498286e-21
4.1285836e-20
-5.278543e-16
1.9036426e-14
5.7330884e-14
1.8948197e-16
-2.3416485e-16
3.8900132e-15
0
-1.6905943e-18
5.4536397e-19
4.203177e-16
9.5645494e-15
2.0587644e-16
-1.0957729e-23
-2.2013781e-20
5.6321493e-21
3.0581782e-18
-5.5630197e-23
-4.5404535e-21
2.9840551e-22
2.5947997e-23
-5.5703746e-21
1.4385278e-21
3.2530482e-19
3.4227022e-23
1.1045889e-21
-6.2528972e-17
4.369663e-14
8.2221411e-14
0
-1.2693598e-16
9.5227361e-17
4.6790001e-19
-3.3880039e-19
3.3955926e-18
9.4593171e-20
4.204995e-16
2.4063287e-20
-1.5933657e-21
-1.7220669e-20
2.1832788e-19
3.9359294e-20
-1.6850704e-21
-7.5936934e-23
5.0110287e-20
0
-2.8075615e-20
4.7244524e-20
3.3244756e-18
2.3042925e-21
1.211864e-20
1.8779021e-15
3.7064651e-14
9.6895883e-14
3.4783965e-19
-9.3403004e-17
1.7011224e-15
6.5658321e-22
-1.6370726e-20
3.4508412e-20
8.3731106e-22
1.0612299e-20
1.7877197e-21
-7.2106905e-23
-7.7079165e-22
9.8620573e-20
2.4931027e-21
-6.4163153e-23
-2.8828899e-23
8.250355e-22
0
-2.337489e-20
2.2098589e-19