/*--------------------------------*- C++ -*----------------------------------*\
  =========                 |
  \\      /  F ield         | OpenFOAM: The Open Source CFD Toolbox
   \\    /   O peration     | Website:  https://openfoam.org
    \\  /    A nd           | Version:  13
     \\/     M anipulation  |
\*---------------------------------------------------------------------------*/
FoamFile
{
    format      ascii;
    class       volScalarField;
    location    "0.05";
    object      alpha.water;
}
// * * * * * * * * * * * * * * * * * * * * * * * * * * * * * * * * * * * * * //

dimensions      [];

internalField   nonuniform List<scalar> 
51200
(
0
0
0
0
0
0
0
0
0
0
0
0
0
0
0
0
0
0
0
0
0
0
0
0
0
0
0
0
0
0
0
0
0
0
0
0
0
0
0
0
0
0
0
0
0
0
0
0
0
0
0
0
0
0
0
0
0
0
0
0
0
0
0
0
0
0
0
0
0
0
0
0
0
0
0
0
0
0
0
0
0
0
0
0
0
0
0
0
0
0
0
0
0
0
0
0
0
0
0
0
0
0
0
0
0
0
0
0
0
0
0
0
0
0
0
0
0
0
0
0
0
0
0
0
0
0
0
0
0
0
0
0
0
0
0
0
0
0
0
0
0
0
0
0
0
0
0
0
0
0
0
0
0
0
0
0
0
0
0
0
0
0
0
0
0
0
0
0
0
0
0
0
0
0
0
0
0
0
0
0
0
0
0
0
0
0
0
0
0
0
0
0
0
0
0
0
0
0
0
0
0
0
0
0
0
0
0
0
0
0
0
0
0
0
0
0
0
0
0
0
0
0
0
0
0
0
0
0
0
0
0
0
0
0
0
0
0
0
0
0
0
0
0
0
0
0
0
0
0
0
0
0
0
0
0
0
0
0
0
0
0
0
0
0
0
0
0
0
0
0
0
0
0
0
0
0
0
0
0
0
0
0
0
0
0
0
0
0
0
0
0
0
0
0
0
0
0
0
0
0
0
0
0
0
0
0
0
0
0
0
0
0
0
0
0
0
0
0
0
0
0
0
0
0
0
0
0
0
0
0
0
0
0
0
0
0
0
0
0
0
0
0
0
0
0
0
0
0
0
0
0
0
0
0
0
0
0
0
0
0
0
0
0
0
0
0
0
0
0
0
0
0
0
0
0
0
0
0
0
0
0
0
0
0
0
0
0
0
0
0
0
0
0
0
0
0
0
0
0
0
0
0
0
0
0
0
0
0
0
0
0
0
0
0
0
0
0
0
0
0
0
0
0
0
0
0
0
0
0
0
0
0
0
0
0
0
0
0
0
0
0
0
0
0
0
0
0
0
0
0
0
0
0
0
0
0
0
0
0
0
0
0
0
0
0
0
0
0
0
0
0
0
0
0
0
0
0
0
0
0
0
0
0
0
0
0
0
0
0
0
0
0
0
0
0
0
0
0
0
0
0
0
0
0
0
0
0
0
0
0
0
0
8.6911338e-27
-4.0970075e-48
1.716653e-81
3.8005815e-87
0
2.4406091e-59
-8.3766383e-50
5.5289279e-28
-2.5069366e-60
0
9.5390889e-58
-1.4555495e-62
-4.7695445e-58
1.4353645e-73
1.6722976e-39
3.6341989e-27
1.3297626e-33
-1.9533617e-54
0
-4.5488021e-64
9.2531905e-48
1.9852689e-67
0
4.0444956e-29
7.8144217e-54
3.1955109e-26
2.1847662e-27
4.7246721e-33
-1.0572342e-54
8.5733205e-47
8.3552874e-67
3.9587722e-33
5.6188256e-55
3.6748046e-27
1.2294761e-27
2.5981817e-29
5.0850578e-35
-9.3155165e-61
-1.0928058e-93
6.2515373e-53
2.7818574e-50
6.6879663e-29
1.815775e-28
2.8859319e-30
5.1959334e-36
2.274296e-64
7.6401957e-69
3.9995714e-56
2.476741e-56
7.6872368e-33
2.0422241e-30
3.1501505e-32
3.4811875e-37
-1.1105613e-67
-9.0030814e-64
1.120234e-47
3.2958399e-52
-2.0117229e-51
3.3339331e-36
4.3259538e-38
2.0877966e-38
2.2269292e-70
-1.533391e-67
5.2361493e-50
1.5057621e-17
1.1624356e-16
1.6243682e-13
6.0482863e-12
1.471889e-13
1.0342424e-41
1.0336554e-41
7.4810129e-37
3.1121637e-31
5.5753951e-18
1.541624e-15
2.7748032e-14
2.1285347e-15
1.0336127e-41
8.5570211e-40
4.9590007e-35
2.2639358e-15
8.0321841e-18
5.9511695e-20
9.3215915e-29
9.4060215e-19
8.5570211e-40
4.166486e-35
1.7953932e-30
1.4155137e-16
6.0355426e-19
4.7119766e-26
2.6971196e-32
6.7828938e-28
4.5251629e-23
1.2911828e-23
8.0349841e-21
1.5584533e-19
1.4840906e-21
1.5983907e-26
2.5021923e-29
3.292362e-25
6.8546444e-24
5.5320233e-21
6.19695e-19
1.2954483e-32
6.8466246e-29
1.2355085e-27
5.6218705e-26
3.2228819e-26
5.238351e-25
8.0043035e-22
5.1081243e-20
2.7918767e-39
3.6856394e-32
1.5557552e-29
5.7401713e-27
4.9339088e-28
7.6447353e-26
1.4829391e-23
1.7279923e-22
3.9551117e-31
3.3580113e-35
8.2997948e-31
5.1045244e-29
5.5520523e-30
3.230917e-27
7.1433716e-27
9.1948032e-45
3.8666434e-18
5.4282044e-15
5.0165155e-12
1.4062157e-10
1.7229946e-12
2.849347e-10
3.3136302e-07
4.0944737e-09
1.261935e-12
2.691438e-15
6.5096522e-14
9.0242672e-13
3.1720886e-14
2.1331802e-12
0
5.9066889e-31
1.0722351e-16
2.0361737e-16
1.1112962e-14
2.0286133e-15
6.6326683e-17
1.7632098e-14
5.3830601e-15
2.681979e-25
1.0721824e-16
2.5147114e-18
2.0489698e-16
2.0418393e-17
2.2649355e-19
1.3333202e-17
9.7108327e-18
1.0695547e-21
1.7732133e-18
3.589754e-21
7.9474912e-20
2.8300837e-20
3.4830311e-22
4.3165937e-24
3.445144e-20
3.2446545e-18
5.9172562e-20
3.2612057e-23
4.9201632e-24
5.720196e-26
5.6306136e-25
3.8210434e-24
4.7115709e-21
2.670949e-19
2.7465336e-21
1.1940896e-24
7.5646428e-30
5.474803e-26
5.0284698e-27
4.9431632e-25
9.6527095e-23
9.6786054e-22
1.7760613e-23
1.31542e-25
2.2801631e-31
3.5289375e-27
2.3746565e-28
2.0039207e-26
2.2986969e-25
2.5158945e-26
3.8666466e-18
3.8666434e-18
1.6960405e-11
2.0475976e-10
3.0322199e-13
1.4778979e-14
6.0769812e-07
5.6502808e-09
9.613658e-11
4.9207794e-14
6.303575e-13
8.1351125e-12
3.0327343e-13
3.1513471e-17
3.5764912e-08
5.7883348e-09
1.1114478e-12
7.4304169e-15
1.625662e-13
5.5574786e-13
2.6484329e-14
3.0833354e-18
2.6165491e-13
1.9389259e-10
1.8148407e-13
1.1937093e-15
1.7942201e-15
8.9257711e-15
2.9099785e-16
3.060101e-18
3.1206421e-18
1.1319969e-21
5.5500647e-15
3.1895327e-17
1.2397328e-18
1.6710808e-18
9.0265394e-19
2.6328357e-18
4.3768023e-16
5.3867635e-16
1.0126594e-17
1.9936669e-20
8.6289371e-21
1.0926541e-24
1.5638576e-22
1.3866163e-19
2.3889229e-17
1.3682631e-17
3.7255031e-20
9.6119676e-24
4.4234648e-23
9.5882189e-25
1.111623e-25
2.9555985e-22
3.500007e-20
1.4158962e-20
1.5756248e-22
6.5918132e-25
7.4567015e-30
3.3753667e-26
8.8346801e-28
7.7081812e-28
3.0653221e-26
4.043821e-24
7.6799679e-07
1.3541317e-07
2.2561127e-11
5.5839095e-14
5.1613671e-14
1.0024145e-05
4.7998615e-07
5.7252973e-09
2.4629334e-13
2.1050948e-11
4.3472404e-11
4.7518587e-14
5.1431092e-14
2.6425906e-07
2.8353115e-07
2.10127e-08
2.4468953e-13
1.7926394e-13
3.4486356e-13
4.6718532e-14
4.6752116e-14
4.6974773e-09
2.3754106e-10
1.7955804e-09
2.6999612e-12
4.4608647e-14
9.7721799e-15
8.3618019e-14
1.1371802e-14
1.7414815e-18
2.7633818e-17
1.547188e-16
1.5207106e-13
1.6806435e-15
3.6577462e-16
3.8525151e-15
3.0031643e-16
3.9160274e-19
9.3771959e-15
2.2503172e-14
3.8250327e-16
1.0242866e-18
1.3471255e-18
1.6415238e-18
1.0042209e-18
3.7678128e-19
3.759308e-16
4.9291936e-16
3.5524888e-19
1.7836053e-23
3.4991945e-25
2.0567767e-25
3.3961599e-21
9.196478e-21
2.1007642e-18
1.1507428e-18
6.113004e-22
3.1037722e-24
2.8386704e-28
1.5804985e-25
2.6490125e-24
2.2219792e-23
2.9247661e-22
1.1698683e-22
3.224608e-06
4.8610678e-07
8.4450999e-12
3.6852705e-07
2.0505425e-05
1.3284473e-05
1.3244921e-11
1.2762098e-06
2.96337e-13
8.019325e-11
8.3807633e-12
6.5616144e-08
8.9072127e-15
4.8744678e-06
3.0577883e-07
3.2817285e-08
6.6379771e-11
4.5033672e-12
8.3669212e-12
4.2909791e-10
4.829339e-16
1.0313448e-07
2.952286e-09
2.5594743e-09
3.8257616e-11
1.0156773e-12
1.1807304e-13
3.3965763e-16
4.5983144e-16
1.819419e-16
7.3811563e-17
1.454202e-16
2.3373084e-12
9.6894652e-15
3.4181056e-15
9.8409624e-15
4.5959403e-16
9.6211102e-18
4.2468461e-14
3.9607978e-13
6.958638e-15
2.4540694e-18
7.1870092e-17
5.1697632e-17
3.4639487e-17
1.0717e-17
2.9211288e-15
3.4006822e-15
3.8185938e-18
2.655558e-21
3.6968063e-20
2.8121873e-20
1.4352921e-18
3.1536161e-19
8.2365377e-17
1.1814726e-18
6.7515759e-24
6.1970928e-24
1.6948748e-24
5.2080602e-23
2.27319e-21
1.5921583e-21
3.109847e-20
4.3256949e-21
6.0737248e-06
1.5011826e-07
8.5047054e-12
1.8943976e-07
8.4013278e-05
9.9109308e-06
8.1462577e-12
6.4291681e-07
1.3322088e-06
2.5614704e-10
8.4450999e-12
2.8355873e-07
1.9007988e-05
7.2546717e-06
3.7770776e-08
3.1351203e-08
1.9676651e-11
1.9562803e-11
2.4081438e-10
1.2326192e-08
9.7386584e-15
2.2062523e-14
1.4054616e-08
1.5484236e-09
9.5855832e-11
3.5682463e-12
3.8235866e-13
1.1089593e-16
2.7363887e-16
3.8498872e-17
7.1045256e-17
9.5459926e-17
7.374126e-12
3.374614e-14
3.0278815e-14
2.7232913e-17
5.7837741e-18
3.3707401e-17
1.2600625e-13
3.3603693e-12
7.6938352e-14
1.397171e-17
4.882965e-16
4.8509996e-17
3.9730691e-18
3.6948837e-17
1.6663739e-14
3.5602957e-14
8.4140662e-16
4.624589e-22
3.2800475e-19
1.0474536e-18
3.9670056e-18
1.0758628e-17
1.8399173e-16
1.720617e-20
1.5922354e-22
1.9122053e-22
9.2178347e-22
2.6077625e-20
2.8686824e-19
2.8082059e-19
6.0286103e-18
4.5435863e-20
1.8924941e-05
2.4640804e-07
3.1733948e-09
3.1748233e-09
8.415725e-05
9.3553404e-06
8.1463121e-12
8.1462577e-12
5.5713585e-06
1.136092e-08
8.5047054e-12
1.0247515e-07
8.4101652e-05
5.699984e-06
8.1463121e-12
2.0160987e-08
1.0305638e-11
1.5706056e-11
8.5228421e-10
8.4123605e-08
2.6985527e-05
7.087375e-12
1.6688841e-08
8.23464e-11
7.3258189e-12
6.796921e-12
3.1423501e-11
7.6204475e-09
2.4095292e-12
9.3527605e-09
9.9852111e-13
1.989885e-11
4.9503873e-11
5.3791369e-13
2.2455495e-13
1.780005e-16
1.4244855e-15
2.0704991e-17
6.6559189e-12
4.898399e-11
3.3269331e-12
2.2879409e-15
9.6370438e-21
8.4671685e-20
3.0865553e-18
8.3846164e-18
1.0650831e-13
7.4141678e-14
3.4498331e-14
1.93309e-17
9.4699462e-21
8.5263915e-21
1.5599086e-17
1.0808437e-17
8.2352832e-15
1.6202818e-20
2.989575e-18
1.5552413e-19
2.7084193e-21
8.4716519e-21
9.2428033e-21
1.1893763e-18
7.3847914e-22
5.8841065e-19
1.3360854e-05
1.0785486e-06
2.1567106e-09
7.9835847e-07
8.416586e-05
1.0126426e-05
8.9314353e-06
5.5661315e-06
3.4612005e-06
1.6519332e-08
6.4345604e-09
2.7285245e-11
8.4164847e-05
4.9757843e-06
1.552461e-11
2.0513753e-11
3.2992423e-13
2.3891168e-13
2.6477681e-10
9.3743091e-13
8.4164678e-05
6.2006925e-07
1.2153426e-08
3.9808534e-11
3.7215224e-10
2.2325123e-11
3.7907552e-11
1.9596024e-09
3.5949681e-05
9.7531816e-07
7.8313756e-13
9.4964214e-11
1.0076507e-10
1.2778745e-12
3.6356178e-10
4.6408528e-08
3.592597e-11
3.4160495e-08
1.7286702e-10
1.205403e-10
2.9177417e-12
2.4323411e-13
3.9756171e-11
3.2345277e-16
5.9109654e-14
1.5502328e-17
3.1508938e-11
3.3285462e-13
4.5215493e-14
2.1919517e-13
3.1682675e-21
8.219892e-20
1.3436642e-16
2.1288042e-19
2.2075714e-21
9.2052073e-21
4.0650897e-16
2.0791944e-15
2.7087197e-21
3.1682675e-21
6.6477364e-16
2.2075714e-21
1.4736067e-21
5.0013824e-18
4.667663e-06
1.1581171e-06
2.1337022e-09
2.5865411e-06
8.308597e-05
1.0007855e-05
2.2497537e-05
8.1797941e-05
4.0086937e-07
4.6298951e-08
7.0097578e-08
3.0850676e-13
8.4164987e-05
4.7518769e-06
2.0774494e-11
3.8464374e-06
2.403678e-13
2.3225277e-13
2.2189055e-13
2.2275235e-13
8.4163974e-05
7.2830826e-08
3.649818e-09
9.9207176e-12
2.5240538e-10
2.6117241e-11
2.3737928e-11
2.3409161e-13
8.4159059e-05
1.0164392e-06
5.6874963e-13
9.7014701e-12
7.9854958e-11
4.022898e-13
1.0436653e-10
3.2719576e-09
5.0334025e-05
4.623995e-07
3.3118525e-11
1.1188748e-10
1.249859e-12
1.0779939e-13
3.3873978e-11
1.5950806e-07
4.6432294e-06
1.9512081e-07
1.7931955e-11
7.8939051e-12
3.7564521e-14
5.1198339e-13
9.6315296e-10
3.1225691e-08
5.0097134e-13
4.5130877e-10
4.7674986e-12
1.6202793e-20
7.7254783e-15
1.3003627e-13
1.3008062e-11
9.1638768e-11
8.4962006e-16
2.9293283e-10
1.3809954e-11
1.6264841e-20
3.2954461e-06
4.7377127e-07
1.2731217e-09
2.6568512e-13
1.9445973e-05
3.6437567e-06
2.242226e-05
9.3190305e-05
8.3580678e-11
1.129736e-07
7.9100747e-08
2.2275235e-13
6.2683354e-05
5.3491966e-06
3.8239371e-10
9.3153763e-05
8.3454452e-11
2.2189055e-13
2.2110667e-13
2.2189055e-13
6.784919e-05
2.1047265e-09
2.8148859e-09
2.0615534e-05
1.3498646e-10
6.2102764e-11
1.2377261e-13
2.2110658e-13
8.4075883e-05
3.0024016e-09
5.133139e-13
1.6034419e-12
4.2218179e-11
2.2869414e-14
2.4872378e-14
1.3597367e-13
8.3999169e-05
8.2262806e-09
3.5588568e-13
5.1428127e-13
1.5559899e-14
1.8250646e-14
2.8457844e-14
1.0525655e-07
4.8352806e-05
4.4532563e-07
2.614363e-13
1.4167374e-11
1.5483589e-14
2.5642697e-13
3.6191001e-10
7.4095461e-08
5.3545523e-06
1.3944638e-07
2.4066561e-13
5.4277372e-12
7.6632425e-15
7.4889976e-14
1.9090841e-10
6.7003644e-09
6.1961334e-12
6.137108e-13
1.2666768e-11
1.6269043e-13
3.5135489e-06
4.6529807e-09
3.225516e-11
8.5331788e-05
5.0978847e-07
5.0883185e-07
2.7605549e-05
7.9295024e-05
1.4538084e-09
1.1100504e-07
1.3414974e-07
4.9713528e-05
2.5006033e-06
2.8695484e-06
1.1195657e-06
0.00010346168
8.8996882e-10
4.0949542e-09
3.5095579e-07
2.2275235e-13
4.4667462e-06
5.9917309e-08
1.0744717e-08
0.00010340743
3.2821547e-10
1.3840027e-09
1.0626025e-06
4.1773064e-05
1.3102941e-05
2.0664835e-07
1.6954456e-06
4.0449153e-05
1.5191195e-11
9.3737562e-09
8.2258257e-08
6.7334712e-06
2.1755433e-05
8.4448722e-07
3.0474688e-08
3.6672661e-11
1.8250646e-14
9.8359605e-09
5.1397784e-08
3.1126013e-10
3.8806445e-05
1.0541792e-06
2.2124243e-13
2.7092271e-13
2.6041594e-12
7.5447864e-14
4.0031969e-14
1.5812974e-12
5.163626e-06
2.9782062e-07
1.727621e-13
5.4699427e-12
1.6735577e-12
5.2041555e-13
2.0782995e-17
6.3509361e-14
9.0125094e-10
5.9638562e-15
8.7562351e-12
5.8202546e-13
6.8830799e-06
2.1130042e-10
3.2020458e-11
0.0011288863
0.00012932323
1.8945352e-08
2.3213243e-05
9.1589533e-05
1.7775357e-10
1.3011796e-08
3.225516e-11
0.0011448805
0.0001129195
1.6154194e-08
1.0178202e-05
0.00010345571
2.9378453e-10
1.7739705e-10
1.0894154e-10
0.001298547
1.6154194e-08
1.6074713e-08
1.0990626e-08
0.00010345704
3.8347261e-10
1.0330744e-09
6.1726496e-10
0.001159446
5.5175212e-05
1.4531316e-08
1.1475574e-06
0.00010341688
1.207855e-13
5.7062108e-09
8.3481299e-07
0.00087328851
7.3771246e-05
4.0556237e-09
6.4906827e-08
3.1959886e-05
7.0824141e-14
6.1876787e-09
2.0369506e-12
0.0014047031
3.5505887e-09
6.0859548e-10
1.2055039e-09
1.5328773e-10
6.4156234e-12
7.3519031e-14
7.5447864e-14
0.0010462766
1.0355784e-10
1.7249214e-13
1.3037634e-13
1.7388953e-13
2.5526685e-12
3.6821782e-14
6.2905626e-07
0.00042612693
2.6596224e-13
8.7924202e-14
1.0070805e-13
3.4597982e-13
4.515636e-06
3.0522526e-11
3.1909892e-11
0.0014007419
0.0011976401
6.5575913e-05
3.4474289e-07
2.3278361e-05
6.8248196e-12
2.3936596e-13
4.1413928e-05
0.0014113333
0.0012473386
7.1945415e-05
8.1966256e-06
5.8324979e-05
1.4301243e-12
1.9834234e-13
4.9221628e-05
0.0014113476
0.0012618424
1.6154194e-08
2.2861809e-06
9.4666331e-05
2.2126762e-10
1.5752845e-13
7.5951025e-05
0.0014113453
0.0014112054
2.9540871e-05
3.1909232e-07
7.0754041e-05
1.2186868e-13
1.2295053e-13
4.7505888e-05
0.0014113436
0.0010041761
0.00011807813
6.4872996e-08
1.8675515e-05
1.207855e-13
1.1180025e-13
2.7884332e-05
0.0014112544
0.0010018134
0.00010121753
1.2033222e-09
1.1200583e-08
1.6464034e-12
7.5447864e-14
2.0369507e-12
0.0014110052
0.0009953563
5.129751e-05
1.95231e-12
5.3524007e-11
1.4125157e-12
6.4252423e-08
2.6447079e-05
0.0014091958
0.00068415952
4.5118744e-05
1.3039097e-13
6.4456475e-13
3.0354707e-07
2.3936596e-13
6.2285904e-05
0.0014112617
0.00077340211
2.8261911e-05
3.0127438e-07
5.1527086e-07
2.3936596e-13
1.9834234e-13
0.00015961592
0.0014113302
0.00083223013
5.0533512e-05
5.2834095e-06
2.5649335e-05
1.9834236e-13
1.9210637e-13
0.00016317322
0.0014112901
0.00084091828
2.8972348e-05
1.2151837e-06
4.3842183e-05
1.639914e-13
1.6780982e-13
0.00021840288
0.0014113423
0.00087002653
3.3849695e-05
4.1662075e-08
4.6326164e-06
4.6122513e-13
1.332319e-13
0.00020635623
0.0014112546
0.00076307416
8.9450847e-05
4.8909958e-08
4.0361918e-06
4.5568063e-13
1.4474777e-13
0.00023578737
0.0014110328
0.00075697932
5.2854318e-05
2.5780629e-08
8.0873954e-12
4.4889561e-13
2.6121883e-13
0.00016236907
0.0014100785
0.00080654919
2.7066461e-05
5.8788831e-09
1.1484612e-12
1.0078988e-12
3.1386246e-08
0.00020407182
0.0014086844
0.00039174146
4.1246207e-05
3.1542252e-11
1.0264323e-11
1.3620051e-09
6.1183652e-13
0.00010621258
0.0011712003
0.00022505871
6.0540125e-06
3.0084962e-07
4.6896349e-08
1.7878784e-08
2.3936596e-13
0.00010299196
0.0012412667
0.00019003648
1.0190214e-05
3.2540399e-06
2.0228814e-06
3.2333948e-07
1.7404579e-13
6.4771362e-05
0.0012458512
0.00011999986
1.388546e-05
2.6015396e-07
1.7006251e-06
4.5886951e-07
1.4263609e-13
8.9923365e-05
0.0012566082
0.00010391087
2.1170313e-05
1.5764846e-08
2.3137704e-09
1.393811e-13
1.417589e-13
0.00011393562
0.0011193263
0.00011665649
3.4359987e-05
1.7401183e-08
5.2573817e-11
1.4232233e-13
1.4263609e-13
0.00014522331
0.0010635523
9.0594803e-05
1.7289557e-05
2.2140011e-09
1.9732552e-11
2.063105e-13
1.4474786e-13
0.00012801943
0.00095859608
7.7045508e-05
1.3950188e-05
2.8637498e-11
2.5973304e-12
1.2487006e-11
4.2762007e-13
0.00015760386
0.00086614931
5.9334669e-05
3.8513653e-05
2.2127486e-06
1.4068358e-11
1.3664503e-09
2.2018434e-06
8.5851082e-05
0.00011069023
3.223927e-06
2.6741353e-05
3.5237299e-06
1.5958439e-08
1.058415e-08
5.4503858e-07
4.481655e-05
0.00013279621
2.0838175e-06
1.31201e-05
4.9802413e-06
1.124174e-08
3.6084024e-07
6.5120372e-06
9.7131629e-05
0.00010786109
6.7176361e-06
1.1732075e-05
1.6689004e-06
4.5047755e-09
1.7868013e-06
3.3943591e-06
9.2786683e-05
0.00014272856
1.2533662e-05
9.2945895e-06
4.0800562e-07
4.6906717e-09
1.8197827e-06
2.7367665e-06
3.2845216e-05
0.00016481852
8.7834416e-08
8.0110639e-08
7.1132697e-08
5.8527608e-09
1.8744097e-13
1.7756314e-06
0.0001598549
0.00017344927
9.5543132e-08
3.0110139e-07
1.0696693e-07
1.8137956e-08
9.1945029e-12
7.0469519e-13
0.00016920275
0.00016893971
9.9501133e-08
5.1868853e-06
2.8377075e-06
1.2888791e-07
9.2129821e-07
9.4325675e-12
7.984693e-05
0.00013409483
2.8169197e-07
1.6988391e-05
8.7271976e-06
3.2288918e-08
1.3708674e-09
1.0643792e-05
6.5373607e-05
1.6378049e-06
1.747608e-06
2.4844264e-05
7.7610073e-06
1.5934966e-08
1.5330935e-07
7.3879076e-07
8.047375e-07
1.1902239e-06
1.414515e-06
1.1359372e-05
7.5646607e-06
8.4760671e-08
4.7676749e-07
7.1298972e-06
3.5768829e-05
1.4073562e-06
1.6033212e-06
8.4280791e-06
3.2996954e-06
4.4749294e-09
1.9324184e-06
9.0167283e-06
7.4333399e-05
1.6073842e-06
1.2787101e-06
5.6792924e-06
1.3778767e-06
5.0191793e-09
2.5875386e-06
2.7534207e-06
1.2345928e-06
1.7607444e-06
5.6524754e-07
5.6558886e-07
6.7962253e-08
6.0453897e-09
1.302027e-08
1.3898955e-05
8.7244146e-05
1.3485931e-06
9.9501134e-08
6.4591354e-07
7.165126e-08
1.9832471e-07
1.2262714e-07
1.0944785e-05
0.00015260666
1.0271682e-06
1.0708072e-07
1.5115664e-06
3.0549437e-06
1.3190517e-06
3.0207271e-06
4.1847589e-07
5.9422947e-09
2.8506892e-06
5.3665062e-07
2.9243841e-06
8.0500868e-06
7.1172706e-07
1.3960171e-09
1.7459638e-05
7.4743766e-05
1.747243e-06
1.948135e-06
1.8532845e-05
1.4512508e-05
6.1376283e-09
3.7972242e-07
3.9128276e-06
1.1171622e-05
1.4159122e-06
2.1645746e-05
3.2811644e-05
6.7220982e-06
6.0536275e-09
4.4763658e-06
4.5528884e-05
4.5712826e-05
1.7269605e-06
2.0280216e-05
3.2051328e-05
3.0719282e-06
5.9600361e-09
2.109367e-06
2.3771775e-05
5.4428329e-05
1.8682387e-06
2.3283302e-06
2.6514859e-05
2.632375e-06
7.7478359e-09
3.516449e-06
1.1509921e-06
1.1330089e-06
3.2191526e-06
1.0931498e-05
4.8444579e-05
3.5887563e-06
8.0894944e-08
1.1356755e-06
8.3600605e-06
1.3078599e-05
2.8919405e-08
6.3137503e-06
3.1888813e-05
5.1927049e-06
4.6566866e-07
1.0420149e-06
9.9560307e-06
2.6302457e-05
1.6142489e-08
1.9612229e-06
1.3254076e-05
5.3003022e-06
7.4336428e-07
3.2407905e-06
2.8743415e-11
2.2955514e-09
5.9422947e-09
4.8754393e-06
9.6479278e-06
3.0084549e-06
2.5566854e-07
0.00017325959
8.7210051e-06
3.1773497e-05
0.0013120963
0.004415786
1.416398e-07
6.9909149e-06
9.1189682e-06
3.8847618e-07
7.017161e-06
2.1579213e-05
0.0015636248
0.0061517476
8.7245205e-08
4.5993794e-06
6.2269465e-09
4.3685822e-07
4.5428919e-05
3.9327557e-05
0.0016807042
0.0061865609
8.9209783e-08
9.0990609e-07
6.7114768e-08
3.1279173e-06
3.796969e-05
2.2035338e-05
0.0014573158
0.005882733
9.3900117e-08
5.3134123e-07
1.7758848e-08
1.7426591e-06
1.0932949e-06
1.0353676e-06
0.0012672796
0.0058741116
6.9340148e-08
3.2297356e-06
1.9786274e-08
1.0545838e-06
2.3571486e-06
9.872999e-07
0.0011009178
0.0050832591
3.526441e-08
4.7787611e-06
2.3972936e-08
1.4059788e-06
3.2589766e-06
7.4884268e-07
0.0012127864
0.0026770546
2.2553242e-08
7.5934305e-09
7.8207886e-08
5.3422956e-06
2.3049088e-09
5.7202e-06
0.00067153073
0.00048855271
2.0304589e-08
1.2897818e-07
3.6786263e-08
0.00050286147
0.0002223516
1.8844398e-05
0.025165381
0.048429517
8.7126626e-08
1.0787343e-05
3.4243447e-05
0.00023510243
1.1218768e-05
5.2754402e-05
0.024627536
0.047023874
8.4062476e-08
4.665534e-08
9.476658e-09
0.00012552325
1.8696937e-05
0.00028992643
0.021868911
0.044364679
8.7213e-08
8.5743922e-08
6.0495264e-08
1.4402331e-05
7.2515032e-06
0.00041081447
0.018135798
0.038996191
8.9209782e-08
4.4269154e-07
1.0357619e-06
9.0138876e-07
1.0131913e-06
0.00022319183
0.015509975
0.036072667
9.3900116e-08
1.4514957e-06
5.7334268e-06
7.3432378e-07
4.7084823e-07
6.4940682e-05
0.010005806
0.02680738
5.6629345e-08
4.7975952e-07
2.7100107e-06
1.3267356e-06
1.5391006e-07
3.4133743e-07
0.0065219998
0.025538111
7.5934236e-09
4.3114798e-09
6.5244782e-09
4.4596672e-06
6.1857751e-09
9.1269617e-08
0.0033929914
0.013312925
4.3102813e-09
1.5871258e-09
1.2355353e-09
0.00050252644
6.1561997e-07
0.0066106003
0.15509772
0.12396564
1.5127772e-07
1.654523e-05
8.7519926e-05
0.00046620973
1.5380912e-06
0.0099032674
0.16110073
0.13605701
8.7245175e-08
1.8725765e-05
2.0488597e-05
0.00016142494
1.4465255e-06
0.011271465
0.15020261
0.12640553
8.9209782e-08
1.7038824e-06
5.0938508e-06
4.836179e-05
1.7301511e-06
0.014128916
0.14838538
0.13811539
9.3900116e-08
1.1179596e-07
2.4485211e-05
3.305519e-07
1.1446621e-06
0.015042177
0.12630869
0.12289681
1.0005234e-07
1.0557465e-07
1.6319753e-05
2.2747556e-07
3.3396785e-07
0.015075503
0.1137925
0.13352565
0.00053082762
5.484408e-08
1.1148269e-07
3.8722704e-07
3.1938311e-07
0.013684729
0.0850011
0.11254816
5.4806709e-08
7.6295053e-09
3.4160995e-07
1.7466306e-06
9.2128136e-08
0.012338111
0.063072446
0.11126882
0.0017898763
2.2077646e-07
9.4934696e-06
7.9796525e-05
3.5552087e-08
0.059349822
0.2072777
0.20727585
0.016049232
2.2022155e-06
7.1413741e-06
0.00014220586
4.6598597e-08
0.077244948
0.20727717
0.20727726
0.028029071
1.5860711e-06
2.2768123e-05
6.987348e-05
2.1707069e-07
0.074309215
0.20727747
0.20727699
0.027686421
8.9923275e-07
6.8892984e-05
5.7500895e-05
5.0838226e-07
0.08887842
0.20727699
0.2072347
0.034755267
4.221978e-07
2.1769663e-05
1.0582284e-05
3.0694519e-07
0.084967947
0.20723549
0.2070806
0.033197301
3.249753e-07
1.0426185e-05
2.1553759e-07
2.2741242e-07
0.091107854
0.20706987
0.20677708
0.031056818
9.7886432e-07
6.2752566e-07
2.0954946e-07
2.1606961e-07
0.07246391
0.20672255
0.1916349
0.031567247
5.5092816e-08
1.0611675e-06
2.096065e-07
2.2343032e-07
0.082582798
0.20495988
0.15231464
0.026070793
0.00037143858
1.2569564e-06
5.1937244e-08
3.3482643e-08
0.0036500373
0.10485379
0.20097805
2.453147e-06
2.3530688e-06
1.1314687e-05
4.6598579e-08
3.5552086e-08
0.0042637192
0.11358691
0.20725349
0.0029770992
1.7337929e-06
2.9595093e-05
1.2353955e-05
4.6598579e-08
0.0038374491
0.10856067
0.20726619
0.0083866568
9.0653726e-07
7.4618187e-05
3.4345586e-05
6.4527219e-08
0.0071468546
0.10865109
0.20711259
0.011491569
6.5902368e-07
1.6221721e-05
6.3313284e-06
1.4591535e-07
0.0090125089
0.088317037
0.20598005
0.018586346
5.9935131e-07
6.6150297e-07
2.0956318e-07
2.2101546e-07
0.011001913
0.082487082
0.20297574
0.01507799
3.8714521e-07
7.9847931e-07
2.0906202e-07
2.0806209e-07
0.012508475
0.068938855
0.20253972
0.016695311
1.313211e-06
8.4570688e-07
2.0807983e-07
2.0332921e-07
0.014498744
0.067454086
0.18528045
0.02766878
8.7164406e-05
1.1745432e-06
5.6320513e-07
3.2217161e-08
3.3482645e-08
0.0049101512
0.097704226
0.0061947408
1.780642e-05
3.6654798e-05
9.7277498e-07
3.0731202e-08
3.8759341e-08
0.0031464696
0.10700707
0.0095343152
2.3217396e-06
3.3249483e-05
9.9550982e-07
3.8706333e-08
5.1946766e-08
0.0026087394
0.10857215
0.0096021139
1.5826646e-06
8.0719623e-05
7.0451187e-07
5.0206122e-08
9.7460302e-08
0.00448331
0.10196933
0.01108285
8.3767244e-07
2.7859971e-05
6.6696505e-06
6.7558504e-08
1.949801e-07
0.0067680064
0.092063665
0.0063334573
6.5902497e-07
8.5324924e-07
1.3386593e-05
8.4810345e-07
1.8456384e-06
0.0061826182
0.080227216
0.0041947522
7.7675564e-07
8.2575064e-07
2.0806182e-07
2.0653797e-07
2.1682106e-07
0.0056871268
0.057220857
0.0052600152
8.7817382e-07
8.537423e-07
2.0325969e-07
1.9730582e-07
2.1771562e-07
0.003170144
0.03505276
0.0030030567
1.1560233e-06
1.1550128e-06
1.8884957e-06
2.9466454e-08
0.00013961785
2.3662432e-05
0.0034328896
0.00074044655
6.6016293e-05
3.2772753e-05
1.5162307e-06
2.5557549e-08
5.384861e-05
2.3710484e-05
0.0027000635
0.002036179
7.7074912e-05
5.1452582e-05
3.8366629e-06
1.9017817e-06
1.7112971e-06
2.3352827e-05
0.00074000448
0.0035313071
9.3452162e-05
8.339305e-05
1.1618004e-06
2.377904e-06
1.7902416e-06
2.3701813e-06
0.0019611538
0.0044819774
0.00016046342
6.5525467e-05
3.24984e-06
1.1635554e-06
1.3721692e-06
1.8556204e-06
0.00090411908
0.004010953
0.00012432252
8.5529925e-07
9.8215788e-06
2.5694436e-06
9.1232014e-07
1.1773151e-06
0.00047903353
0.005284491
4.9154151e-06
9.3490462e-07
5.6520095e-07
7.5105136e-07
7.1278647e-07
9.2536444e-07
2.1141211e-05
0.0044512213
0.00015309051
8.7469366e-07
1.9730027e-07
1.9694453e-07
1.9753725e-07
5.6051154e-07
0.00010596825
0.00143378
0.00017014302
7.3680626e-06
8.2772892e-06
6.4109962e-07
0.00014505094
3.2728112e-05
1.0445155e-07
6.0275047e-05
6.0757216e-05
4.5862689e-05
1.3150605e-06
2.3900072e-08
0.00014473847
7.3121724e-05
1.8573934e-06
1.8516287e-05
1.687109e-05
7.5778923e-05
4.1558794e-06
2.0378282e-08
2.6175138e-05
2.8524452e-05
3.6593896e-05
6.87981e-05
6.515368e-05
4.3453713e-05
4.3101673e-06
2.3252764e-06
2.4843297e-06
2.0749442e-06
6.447273e-05
0.00026922954
0.00014150499
7.2804183e-07
2.1805105e-06
2.1556482e-06
2.3948876e-06
1.3370484e-06
2.1797029e-05
0.00024654508
8.9667068e-05
7.4206685e-07
5.8271575e-06
3.2349939e-06
8.7518702e-07
5.3442331e-07
1.2772016e-06
6.1159925e-05
2.0134413e-06
9.8743948e-06
1.5487699e-05
7.6426051e-06
6.4575729e-07
5.1819216e-07
8.8117066e-07
0.00017286655
6.8769745e-05
6.7356523e-05
1.767129e-05
9.5465883e-06
5.002722e-07
4.40766e-07
8.2805915e-07
9.362867e-05
0.00011048424
0.00010820205
1.6276957e-05
4.393246e-06
4.4438919e-05
1.3393571e-05
1.0325868e-08
3.5677744e-06
3.563452e-05
3.8988996e-05
5.9419178e-06
2.0378282e-08
0.00012068108
5.1766564e-05
3.39346e-08
3.3261891e-07
1.6819285e-05
7.5779059e-05
1.7742588e-06
1.7148239e-08
2.1434522e-05
5.0355046e-05
3.5436983e-05
2.8652308e-05
2.7636793e-05
3.9570854e-05
4.3090915e-06
9.0269043e-07
7.9411582e-07
8.7390647e-06
1.4853472e-05
0.00011399682
0.00011463288
7.2067039e-07
5.1460643e-06
2.3306897e-06
7.8007178e-07
2.0782126e-06
1.2523856e-06
5.1527521e-05
6.7649184e-05
1.7675274e-06
1.844132e-05
7.3092749e-06
7.222976e-07
5.248329e-07
5.2996534e-07
3.3113179e-06
2.0292913e-06
9.9304979e-06
1.9332184e-05
1.8861555e-05
2.4055065e-06
5.1015472e-07
5.20373e-07
1.098158e-05
2.6747858e-06
3.0813175e-05
1.9294381e-05
1.906467e-05
3.428543e-06
4.8813547e-07
8.7049523e-07
1.7663891e-05
2.5292627e-06
7.9957417e-06
9.3723862e-06
3.377096e-06
4.0604684e-07
5.5667791e-07
9.6176148e-12
9.4798424e-09
2.4320162e-06
7.4410091e-06
5.423796e-06
2.7807709e-08
2.0260616e-05
1.3863295e-05
4.2121344e-06
2.5486067e-06
9.8569481e-06
5.404746e-05
2.406061e-07
1.6938198e-08
3.6079799e-05
3.9616664e-05
4.5706777e-05
1.4220765e-05
1.7751726e-05
3.1905505e-05
3.866387e-06
1.7148239e-08
5.2484574e-06
2.9164852e-05
4.9534099e-05
1.7592956e-05
4.2257642e-05
7.2655339e-07
1.2104529e-05
3.0015557e-06
7.9411582e-07
1.3256096e-05
1.2754399e-05
3.9600426e-05
7.0362357e-05
7.5301034e-07
1.9334059e-05
1.8273739e-05
1.5743273e-06
7.3559437e-06
5.2381726e-07
4.6232624e-06
5.227885e-06
1.1501912e-06
1.9335074e-05
1.9332184e-05
3.4797333e-06
5.0421815e-07
5.1498401e-07
3.2235071e-06
5.834007e-07
5.8769749e-07
1.9332184e-05
1.6759901e-05
1.2450619e-06
4.9761886e-07
1.2772659e-06
5.7755574e-07
5.6611054e-07
5.7852085e-07
1.781876e-06
6.5422866e-07
6.2237528e-10
9.6176148e-12
8.8556285e-12
3.8805029e-09
4.9685999e-07
7.6667155e-08
1.0094634e-05
3.0100383e-06
3.9662207e-07
1.3350539e-07
1.6169797e-06
3.5743619e-06
1.3701547e-05
1.3208218e-05
1.693827e-08
1.6957122e-08
2.7288173e-05
7.31554e-06
4.0488986e-05
5.5661467e-06
2.9332802e-05
2.4221782e-05
1.5481412e-06
1.6957122e-08
2.3874872e-05
1.958437e-05
5.0920791e-05
3.3820629e-06
2.8488941e-06
7.2071051e-07
7.5342255e-06
8.7540825e-07
5.7757966e-06
3.6071328e-05
5.0967143e-05
8.4772739e-06
2.5512696e-05
2.6516969e-06
1.9334386e-05
1.5346568e-05
1.6073526e-06
3.7019533e-05
3.7052325e-05
1.2941253e-05
8.567235e-05
1.0830927e-06
1.9334059e-05
1.9334089e-05
7.0421756e-06
1.7150868e-05
1.3550304e-05
5.5724012e-06
2.0148128e-05
1.0781479e-06
1.9334321e-05
5.9695869e-06
3.0984125e-06
7.129443e-06
5.4082103e-07
5.5761026e-07
5.5975216e-07
5.668872e-07
8.8991479e-08
1.4726927e-08
9.2340189e-07
2.3168527e-07
4.3336584e-12
2.545692e-14
3.5421854e-08
8.4631054e-14
8.9257017e-06
5.095833e-06
1.1739073e-08
1.0898049e-08
1.7204231e-11
3.0929128e-06
2.1342951e-05
6.8083085e-06
4.1554795e-07
1.6938174e-08
4.4606044e-06
2.1050316e-08
8.0281227e-06
1.0418579e-05
3.0087146e-05
4.648845e-06
1.2559163e-07
2.0685841e-07
1.8674201e-05
3.0899059e-06
4.142764e-05
9.1852242e-06
5.3086511e-06
1.0958795e-06
1.5927979e-06
3.0036743e-07
1.865833e-05
1.8591084e-05
5.1023132e-05
4.8171416e-06
4.8332772e-06
2.1895107e-06
9.4931891e-06
5.9337567e-06
1.0681432e-05
3.222663e-05
5.1156061e-05
1.3621193e-05
8.954667e-05
1.8607806e-06
1.5991003e-05
1.338532e-05
2.4316016e-05
1.9502412e-05
5.1225686e-05
8.1800543e-06
8.3566467e-05
3.8024277e-06
1.5420823e-05
9.1428772e-07
5.0008256e-05
3.0666485e-05
3.7889146e-05
1.4426525e-06
1.1637774e-05
8.6436951e-07
1.7504902e-11
1.4690183e-12
1.4174228e-06
1.6684523e-07
1.7906844e-14
2.7011323e-15
2.413672e-14
6.1709887e-17
1.8939993e-06
2.5569931e-06
1.2637923e-06
1.4346061e-07
2.1699283e-13
6.6327131e-08
9.3554679e-06
1.5080043e-06
6.0967762e-06
1.4579242e-08
1.1988093e-08
1.1434193e-08
4.1492482e-11
1.2274081e-05
3.0087767e-05
3.1833738e-06
9.7925238e-08
2.644075e-07
2.7256674e-06
1.1988093e-08
1.0339985e-05
2.2930135e-05
1.9525068e-05
1.8006648e-06
9.3868993e-08
4.9649828e-07
1.5008132e-05
2.6892682e-06
3.0392513e-05
2.0983407e-05
1.8161747e-06
1.8110198e-06
5.7244988e-07
6.6242821e-07
2.0607094e-05
5.9900238e-06
5.1225686e-05
1.3112419e-05
7.6407453e-05
3.314391e-06
1.8236884e-06
2.3434938e-06
4.9218706e-05
8.783885e-06
5.1225686e-05
4.434411e-06
8.7760856e-05
1.0388581e-05
1.9019741e-06
8.3133666e-07
6.6936944e-05
1.8536985e-05
5.1226405e-05
8.6302333e-07
3.6525388e-05
1.4361549e-06
2.0350777e-08
8.3217877e-14
3.989011e-07
3.8132389e-10
2.0887078e-14
2.6623694e-15
3.3785878e-17
6.8249154e-18
1.6624421e-06
1.906759e-06
3.4013756e-06
8.2370912e-07
1.4159801e-14
2.8393508e-15
3.2404135e-08
6.2853863e-09
5.2831854e-06
9.5173292e-06