/*--------------------------------*- C++ -*----------------------------------*\
  =========                 |
  \\      /  F ield         | OpenFOAM: The Open Source CFD Toolbox
   \\    /   O peration     | Website:  https://openfoam.org
    \\  /    A nd           | Version:  13
     \\/     M anipulation  |
\*---------------------------------------------------------------------------*/
FoamFile
{
    format      ascii;
    class       volScalarField;
    location    "0.05";
    object      p;
}
// * * * * * * * * * * * * * * * * * * * * * * * * * * * * * * * * * * * * * //

dimensions      [1 -1 -2 0 0 0 0];

internalField   nonuniform List<scalar> 
51200
(
0.87110866
0.85729119
0.84923245
0.8461043
0.84610381
0.84923107
0.85728915
0.87110627
0.86085752
0.84766139
0.84029553
0.83751082
0.83751035
0.84029419
0.84765938
0.86085515
0.85151926
0.83916237
0.83245375
0.82995676
0.8299563
0.83245244
0.8391604
0.85151691
0.84391441
0.8324489
0.82638166
0.82413043
0.82412999
0.82638039
0.83244697
0.84391209
0.83748243
0.82689267
0.82145286
0.8194186
0.81941817
0.82145163
0.82689078
0.83748013
0.83187279
0.82212743
0.81729113
0.81545141
0.815451
0.81728993
0.82212559
0.83187052
0.82696937
0.81799962
0.81373936
0.81207814
0.81207774
0.8137382
0.81799783
0.82696714
0.82273871
0.81433041
0.81065004
0.80915833
0.80915794
0.81064891
0.81432866
0.82273652
0.78317292
0.7825149
0.78210583
0.78162342
0.78162287
0.78210428
0.78251263
0.78317027
0.78420766
0.78366753
0.78324104
0.78275822
0.78275768
0.78323954
0.7836653
0.78420503
0.78536783
0.78499924
0.784558
0.78407054
0.78407002
0.78455654
0.78499706
0.78536522
0.78654993
0.78632885
0.78586905
0.78537756
0.78537706
0.78586763
0.78632671
0.78654735
0.78774384
0.78760687
0.78712567
0.78663472
0.78663424
0.7871243
0.78760478
0.7877413
0.78890015
0.78877899
0.78827836
0.78779464
0.78779418
0.78827702
0.78877694
0.78889764
0.78996481
0.78980381
0.78928947
0.78881974
0.78881929
0.78928817
0.78980181
0.78996234
0.79082965
0.79061352
0.79009208
0.78963881
0.78963837
0.79009083
0.79061158
0.79082723
0.78554179
0.78422818
0.78342925
0.78304525
0.78304457
0.78342738
0.78422542
0.78553861
0.78584028
0.78454127
0.78380143
0.78343096
0.7834303
0.78379961
0.78453856
0.78583713
0.78612655
0.78485958
0.7841829
0.7838241
0.78382347
0.78418113
0.78485693
0.78612343
0.7862511
0.78503131
0.78442428
0.7840823
0.78408168
0.78442257
0.78502872
0.78624801
0.7862527
0.78510136
0.784566
0.78424535
0.78424476
0.78456434
0.78509883
0.78624965
0.78619298
0.78512264
0.78465725
0.78436189
0.78436132
0.78465564
0.78512017
0.78618998
0.78607414
0.78509489
0.78470341
0.78443948
0.78443893
0.78470185
0.78509249
0.78607119
0.78573779
0.78494264
0.78464777
0.78442569
0.78442517
0.78464626
0.7849403
0.78573488
0.77505312
0.77483271
0.77487797
0.77497321
0.77497232
0.77487554
0.77482912
0.77504905
0.77524925
0.77507881
0.77513218
0.7752066
0.77520574
0.77512982
0.77507529
0.77524522
0.77544942
0.77532453
0.77539062
0.77544706
0.77544623
0.77538832
0.77532107
0.77544543
0.77563355
0.77554582
0.77562802
0.77567203
0.77567123
0.77562579
0.77554244
0.77562961
0.77580773
0.77575463
0.77585515
0.77589112
0.77589034
0.77585299
0.77575133
0.77580383
0.77598336
0.7759618
0.77608087
0.77611222
0.77611147
0.77607878
0.77595858
0.77597952
0.77615764
0.77617242
0.7763098
0.77634058
0.77633986
0.77630778
0.7761693
0.77615387
0.77626574
0.77639955
0.77655348
0.77659028
0.77658959
0.77655153
0.77639652
0.77626202
0.76955109
0.76938032
0.76948987
0.76968928
0.76968805
0.76948659
0.76937549
0.76954579
0.76965261
0.76951951
0.76964006
0.76981739
0.76981619
0.76963686
0.76951475
0.76964734
0.7697619
0.76966388
0.76979757
0.76995545
0.76995429
0.76979446
0.76965919
0.76975668
0.76985383
0.76978542
0.76993593
0.77008051
0.77007938
0.7699329
0.76978082
0.76984866
0.76993134
0.76989027
0.77006119
0.77019754
0.77019645
0.77005826
0.76988577
0.76992623
0.77000135
0.76998524
0.77017959
0.77031169
0.77031064
0.77017675
0.76998086
0.7699963
0.77005937
0.77007644
0.7702974
0.77042949
0.77042849
0.77029466
0.77007219
0.77005439
0.77007453
0.77019987
0.77044722
0.7705847
0.77058374
0.77044459
0.77019576
0.77006962
0.76425706
0.7641836
0.76435547
0.76459247
0.76459066
0.76435084
0.76417685
0.76425006
0.76432121
0.76428203
0.76446104
0.76467599
0.76467422
0.76445652
0.76427534
0.76431423
0.76439087
0.76438346
0.76457088
0.76476633
0.76476461
0.76456647
0.76437685
0.76438393
0.7644546
0.76447266
0.76467025
0.76485135
0.76484968
0.76466597
0.76446616
0.76444771
0.76451398
0.7645531
0.76476293
0.76493391
0.7649323
0.76475878
0.76454673
0.76450715
0.76457234
0.76462802
0.76485217
0.76501643
0.76501488
0.76484815
0.76462181
0.76456557
0.76462658
0.76470146
0.76494198
0.76510309
0.76510161
0.76493812
0.76469545
0.76461989
0.76465822
0.76480019
0.76505641
0.76521892
0.76521752
0.7650527
0.76479439
0.76465162
0.75956699
0.75951369
0.75966049
0.75986996
0.75986713
0.75965373
0.75950397
0.75955772
0.75960681
0.75957996
0.75973361
0.75992536
0.75992258
0.75972698
0.75957026
0.75959754
0.75965068
0.7596486
0.75980964
0.75998559
0.75998287
0.75980316
0.75963893
0.75964142
0.75969088
0.7597091
0.75987854
0.76004264
0.76004
0.75987222
0.75969953
0.75968164
0.75972853
0.75976392
0.75994313
0.76009868
0.76009614
0.75993701
0.75975452
0.75971932
0.75976617
0.75981567
0.76000607
0.76015569
0.76015325
0.76000017
0.7598065
0.75975701
0.75980251
0.75986771
0.76007044
0.76021681
0.7602145
0.76006477
0.75985885
0.75979342
0.75982575
0.75993794
0.76015192
0.7602983
0.76029613
0.7601465
0.75992943
0.75981675
0.75516542
0.75512736
0.75523756
0.75540267
0.75539798
0.75522716
0.75511261
0.75515263
0.75519121
0.75517314
0.75528964
0.75544171
0.75543709
0.75527939
0.75515826
0.75517836
0.75522001
0.75522074
0.75534371
0.7554841
0.75547957
0.75533364
0.75520578
0.75520707
0.75524688
0.75526293
0.75539266
0.75552415
0.75551974
0.75538283
0.75524803
0.75523387
0.75527243
0.75530122
0.75543837
0.75556332
0.75555907
0.75542884
0.75528654
0.75525938
0.75529828
0.75533733
0.7554827
0.75560305
0.75559899
0.75547353
0.75532301
0.75528524
0.75532362
0.7553736
0.7555277
0.75564542
0.75564159
0.75551893
0.75535981
0.75531065
0.75533982
0.75542133
0.75558305
0.75570041
0.75569685
0.75557471
0.75540819
0.75532696
0.75095936
0.75093039
0.75100198
0.75112061
0.7511121
0.75098507
0.75090689
0.75094115
0.75097671
0.75096245
0.75103977
0.75114957
0.75114115
0.75102297
0.75093844
0.75095818
0.75099629
0.75099584
0.75107889
0.75118079
0.75117249
0.75106229
0.75097146
0.75097737
0.75101467
0.75102533
0.75111406
0.75120994
0.75120185
0.75109782
0.7510009
0.75099543
0.75103222
0.75105186
0.75114659
0.75123806
0.75123028
0.75113083
0.75102772
0.75101273
0.75105002
0.75107661
0.75117778
0.75126623
0.75125886
0.75116265
0.75105309
0.75103038
0.75106756
0.75110127
0.75120906
0.7512959
0.751289
0.75119465
0.7510787
0.75104792
0.75107855
0.75113328
0.75124659
0.75133332
0.751327
0.75123296
0.75111193
0.75105906
0.74689026
0.74686908
0.74690882
0.74698701
0.74697175
0.74687982
0.74682804
0.74685906
0.74690301
0.74689238
0.74693691
0.74700946
0.74699425
0.74690784
0.74685031
0.74687084
0.74691739
0.74691651
0.74696586
0.74703341
0.74701838
0.746937
0.74687377
0.74688399
0.74693071
0.74693745
0.74699155
0.74705537
0.74704074
0.74696328
0.74689471
0.74689644
0.74694321
0.7469558
0.74701492
0.74707613
0.74706212
0.74698754
0.74691374
0.74690845
0.74695568
0.74697241
0.74703692
0.74709653
0.74708332
0.74701073
0.74693167
0.74692075
0.74696777
0.74698857
0.7470586
0.74711761
0.74710537
0.74703383
0.74694981
0.74693308
0.74697482
0.74700965
0.74708423
0.7471436
0.74713249
0.74706098
0.74697339
0.74694092
0.74293472
0.74291523
0.74292914
0.74297295
0.74293891
0.74287878
0.74308031
0.74286704
0.74294615
0.74293289
0.74295045
0.74299054
0.74295629
0.74289417
0.74285636
0.74288675
0.74295816
0.74295079
0.74297226
0.74300919
0.74297518
0.74291746
0.74287438
0.74289344
0.74296835
0.74296564
0.74299128
0.74302606
0.74299346
0.74293877
0.74289015
0.74290044
0.7429772
0.74297796
0.74300821
0.74304178
0.74301141
0.74295812
0.74290409
0.74290812
0.74298548
0.7429884
0.74302378
0.74305702
0.74302935
0.74297641
0.74291725
0.74291633
0.74299283
0.74299802
0.74303881
0.74307258
0.74304787
0.74299453
0.74293083
0.74292475
0.74299555
0.74301117
0.74305662
0.74309162
0.74307006
0.74301559
0.7429488
0.74293009
0.73913005
0.73906837
0.73905116
0.73906707
0.73900924
0.73894025
0.73936294
0.73894132
0.73915551
0.73907951
0.73906736
0.73908019
0.73902035
0.73896249
0.7389432
0.73896421
0.73915553
0.73909022
0.73908387
0.73909422
0.73903587
0.73898718
0.73895799
0.73896879
0.73915384
0.73909887
0.73909787
0.73910688
0.73905264
0.73900816
0.73896859
0.73897295
0.73915177
0.73910529
0.7391099
0.73911869
0.73907002
0.73902656
0.7389789
0.73897835
0.73914926
0.73910977
0.73912056
0.73913018
0.73908783
0.73904345
0.73898915
0.73898451
0.7391463
0.73911312
0.73913054
0.73914196
0.73910611
0.73905977
0.73900027
0.73899109
0.7391412
0.73911928
0.73914274
0.73915666
0.73912677
0.73907812
0.73901541
0.73899578
0.73603795
0.73541325
0.73525796
0.73523816
0.73497705
0.74240888
0.73521888
0.7350431
0.73576591
0.73532231
0.73526703
0.73523673
0.73494671
0.73518816
0.73519264
0.7350902
0.73567699
0.73531755
0.73527857
0.73524611
0.73502518
0.73519371
0.73510088
0.7350908
0.73562441
0.73531704
0.7352894
0.73525905
0.73509729
0.73520266
0.73510555
0.73509397
0.73557806
0.73531704
0.73529901
0.73527197
0.73515481
0.73521034
0.73511563
0.73509819
0.7355334
0.73531658
0.73530735
0.73528448
0.7352028
0.73521926
0.73512628
0.7351036
0.73549346
0.73531567
0.73531478
0.73529716
0.73524431
0.73522928
0.73513826
0.73511019
0.73546308
0.73531707
0.73532417
0.73531283
0.73528104
0.73524316
0.73515423
0.73511653
0.73449028
0.73206369
0.73152541
0.73178728
0.74583041
0.7381138
0.73114459
0.73201899
0.73279574
0.73172881
0.73153345
0.73154284
0.73116286
0.73178446
0.73136172
0.73124769
0.73254829
0.73168677
0.73154328
0.73151781
0.73137768
0.73162625
0.7311938
0.73125929
0.73236014
0.73166401
0.73155194
0.73153243
0.73150623
0.73157997
0.73122325
0.73125652
0.73219101
0.73164497
0.73155984
0.73154969
0.73159691
0.73155939
0.73124917
0.73125525
0.73204307
0.73162634
0.731567
0.73156524
0.73166646
0.73155264
0.73127718
0.73125671
0.73191994
0.73160765
0.73157348
0.73157894
0.73171778
0.73155147
0.73130693
0.73126196
0.73183355
0.73159094
0.73158253
0.73159449
0.73175612
0.73155482
0.73134003
0.73127193
0.72857666
0.72749309
0.72761515
0.72803124
0.77810841
0.73070317
0.72721325
0.72771429
0.7286711
0.72753304
0.72766944
0.72807987
0.73019099
0.72877003
0.72735227
0.7274415
0.72845259
0.72754124
0.72771027
0.72783842
0.72996895
0.72726521
0.72737558
0.72743404
0.72822001
0.72755685
0.72774375
0.727874
0.72986908
0.72736231
0.72740402
0.72742208
0.72803409
0.72757637
0.72777649
0.7279054
0.72973814
0.72747498
0.72743883
0.72741415
0.72789219
0.72759587
0.72780728
0.72793248
0.72958529
0.72758052
0.72748179
0.72741267
0.72778529
0.72761471
0.72783565
0.72795774
0.7294229
0.72768132
0.72753078
0.72741927
0.7277342
0.72764
0.72786411
0.72798568
0.72925317
0.72777865
0.72758346
0.72743779
0.7312036
0.72388626
0.72337887
0.72401268
0.73301279
0.7269562
0.72300898
0.7235268
0.7254323
0.72373053
0.72348657
0.72426602
0.73176627
0.724204
0.72317283
0.72350051
0.72696142
0.72385433
0.72356814
0.72422654
0.72833035
0.72279749
0.72323983
0.72348254
0.72494518
0.72377219
0.72364186
0.72413321
0.72772392
0.72325046
0.72332511
0.7234754
0.72451236
0.72373439
0.72372053
0.72419567
0.72742629
0.72345
0.72340702
0.72347326
0.72423025
0.72370171
0.72380143
0.72425655
0.72712166
0.72364544
0.72349259
0.72347769
0.72402612
0.72368127
0.72387916
0.72431287
0.72681607
0.72383465
0.72358694
0.72349238
0.72390496
0.72367166
0.72395261
0.72436917
0.72649952
0.72402567
0.72368882
0.72352647
0.72696947
0.71962458
0.71874787
0.71989437
0.7291272
0.72121094
0.72437224
0.72277049
0.7211674
0.71887331
0.71881039
0.72011266
0.72855484
0.71865108
0.71890467
0.71945733
0.72059475
0.71885059
0.71889949
0.72029212
0.72822054
0.71972945
0.71902166
0.7195414
0.71948309
0.71884519
0.71903972
0.72036897
0.72464435
0.71987781
0.71912837
0.71955303
0.71926644
0.7188795
0.71920716
0.72043622
0.72410236
0.71941028
0.71921858
0.71956548
0.71913886
0.71893023
0.71938534
0.72052321
0.72381462
0.71968773
0.71931756
0.71957906
0.71907265
0.7190068
0.71956576
0.72062268
0.72348787
0.71994049
0.71944434
0.71959582
0.71909176
0.71911566
0.71975346
0.72073282
0.72315781
0.72020482
0.7195945
0.71963338
0.71732174
0.71572532
0.71458936
0.71726993
0.72834229
0.71520948
0.72946307
0.76969941
0.71458884
0.71480497
0.71452787
0.71741148
0.7293921
0.71240645
0.71335723
0.71785114
0.7144979
0.71478923
0.71450505
0.71772503
0.72979165
0.71470084
0.71366916
0.71727445
0.7143107
0.7147858
0.71470225
0.71819164
0.72982275
0.7157086
0.7139639
0.71684517
0.7143602
0.7148117
0.71499636
0.71832718
0.72470826
0.71582532
0.71416749
0.71663624
0.71445397
0.71487112
0.7153023
0.718352
0.72190014
0.71571768
0.71437567
0.71645404
0.71457478
0.71496953
0.71560572
0.71824734
0.72127384
0.71605534
0.71462146
0.71628165
0.71471454
0.71510932
0.71592297
0.71824829
0.72072523
0.71649057
0.71492205
0.71613639
0.71059658
0.70970201
0.70858974
0.71318403
0.73882
0.70881718
0.71721668
0.71332657
0.7086478
0.7092845
0.70843221
0.71311136
0.71035456
0.70929749
0.71149046
0.71134544
0.70868168
0.70916615
0.70818996
0.71344558
0.71298726
0.70824676
0.70845595
0.71581937
0.70875006
0.70913761
0.70838099
0.7155445
0.73806162
0.70909394
0.70842435
0.71487966
0.70886421
0.7092147
0.70921826
0.71728499
0.73569861
0.71064232
0.70877212
0.71409968
0.70902242
0.70939581
0.71000163
0.71512005
0.72419291
0.71134541
0.70922689
0.71348821
0.70923184
0.7096733
0.71067876
0.71438141
0.72040342
0.71148815
0.70967032
0.71296911
0.70950888
0.71008184
0.7114182
0.71483198
0.7190859
0.7121973
0.71013929
0.71250577
0.70523879
0.70526996
0.70434002
0.71924887
0.71942365
0.70807282
0.70912414
0.69490706
0.70335992
0.70523309
0.70416042
0.71471456
0.71935745
0.70894496
0.71174642
0.71407795
0.70341543
0.70500439
0.70449425
0.71881833
0.71651884
0.70759519
0.70794231
0.71298349
0.70357001
0.70506789
0.70535653
0.72657211
0.71412537
0.70826157
0.708021
0.70757859
0.70382591
0.7052039
0.70566208
0.72646306
0.71605915
0.70849683
0.70746739
0.70648028
0.70413294
0.70537552
0.70677378
0.71245007
0.73880233
0.70875684
0.7071855
0.70668164
0.70447256
0.70570978
0.70801866
0.71738962
0.70679491
0.70890005
0.70719164
0.70675176
0.70484086
0.70620566
0.70921933
0.71869292
0.70836104
0.70887091
0.70728891
0.70678448
0.69946774
0.68881449
0.67415613
0.88110263
0.70358381
0.69169636
0.69919847
0.71188203
0.69649375
0.68679688
0.67149232
0.88493596
0.70068602
0.69111226
0.69874297
0.70832971
0.69543257
0.68513568
0.67195451
1.0303213
0.71716285
0.69212926
0.700776
0.71143324
0.69491581
0.68686812
0.68526673
0.90197909
0.71407292
0.69566114
0.6984121
0.70879361
0.69499236
0.68841986
0.69103839
1.0796773
0.72317319
0.69746732
0.69915378
0.70122781
0.69511455
0.686246
0.69702586
1.3976225
0.70704286
0.69426524
0.70036059
0.69991686
0.69535722
0.68896739
0.71487617
0.90743452
0.71228913
0.69603494
0.7003072
0.69987191
0.69606612
0.69336723
0.71621298
0.80000884
0.71189424
0.69872158
0.70050968
0.69984603
0.69389834
0.69329708
0.65794228
1.10608
1.0113196
0.66035968
0.70067128
0.71371645
0.69463644
0.69183757
0.6711957
1.1039818
1.0144599
0.66180515
0.69425709
0.68971097
0.69333368
0.69111954
0.68006805
1.110909
1.0324753
0.68828777
0.69204283
0.73579894
0.6929784
0.69068192
0.68863998
1.1031387
1.1785123
0.7051677
0.69164213
0.69797848
0.69288842
0.69016968
0.68756923
1.1008975
0.96347701
0.72410288
0.69246017
0.69292009
0.69296658
0.68956881
0.69857522
1.1096891
0.96523777
0.70648461
0.69401582
0.69336833
0.6932264
0.69041268
0.71775232
1.1145149
0.96544077
0.70011062
0.69525299
0.69308327
0.69386135
0.6937945
0.72920346
1.1040697
0.83220878
0.70720312
0.69666396
0.69320189
0.68147994
0.67928206
0.66824362
1.1191684
0.86686526
0.65906808
0.68949335
0.70963309
0.68058373
0.67684923
0.6794468
1.1157662
0.87710039
0.66421016
0.68702608
0.69773546
0.68011284
0.67647649
0.68600586
1.1168306
0.87849533
0.66980687
0.68357664
0.71847103
0.68130055
0.67691297
0.70145978
1.1161122
0.89260506
0.67992942
0.68197878
0.6781377
0.68282999
0.67768665
0.70238724
1.1165114
0.87123751
0.69238063
0.68396475
0.6782936
0.6842567
0.67869609
0.71193112
1.1195024
0.87109748
0.67451333
0.68460738
0.67877773
0.68526525
0.68026601
0.71933575
1.1187097
0.89711151
0.68356679
0.68545141
0.67949319
0.68623818
0.68511378
0.73214422
1.1037714
0.73970737
0.68997411
0.68693939
0.68081425
0.67637835
0.67156115
0.66954189
0.99503883
0.71441133
0.67427356
0.68060216
0.67570643
0.67648208
0.66969922
0.66611081
1.0151632
0.70045664
0.67562305
0.68118885
0.67509878
0.67664535
0.66966965
0.67915946
1.0193489
0.70433626
0.67705441
0.67875082
0.67446037
0.6767775
0.67034644
0.69200146
1.0264421
0.71418511
0.67844975
0.6792117
0.67389993
0.67695093
0.67140476
0.69999776
0.96152603
0.71927908
0.68760628
0.68011781
0.67431832
0.67787595
0.67275815
0.7065738
0.9466045
0.71322366
0.68364539
0.68167697
0.67490202
0.67879777
0.67415077
0.70286523
0.91496419
0.71131681
0.69209465
0.68280978
0.67565045
0.67911551
0.67616936
0.70941825
0.88657306
0.708518
0.68037746
0.6830877
0.67657765
0.68050428
0.6558112
0.71274862
0.68925354
0.69902314
0.67806079
0.66935872
0.66507698
0.68046648
0.6586271
0.72428422
0.68610723
0.69891428
0.66957158
0.67013339
0.6651003
0.68010104
0.66004654
0.73103089
0.68572169
0.69924133
0.67042812
0.66913865
0.66519172
0.68029762
0.65930893
0.72375929
0.68287597
0.7013224
0.67206285
0.66969183
0.66533352
0.67994363
0.66324309
0.78363322
0.68559895
0.69746726
0.67905586
0.67138883
0.66570161
0.67742984
0.66668398
0.74280086
0.68822889
0.69802711
0.68072124
0.67232334
0.66622418
0.67397439
0.66789559
0.75177735
0.68815938
0.69801467
0.67645011
0.6734342
0.66682914
0.6716464
0.67085317
0.65550193
0.67899937
0.69693432
0.67626367
0.6777466
0.66766438
0.67224315
0.64642898
0.73074287
0.68767422
0.6736264
0.64628811
0.64653309
0.65160184
0.67225923
0.65310504
0.77133071
0.68658577
0.67119402
0.63609884
0.64500403
0.65151665
0.67110797
0.65244153
0.72636596
0.68537656
0.66953659
0.63690331
0.64322253
0.65105847
0.67027268
0.65494596
0.78370699
0.68285029
0.66782575
0.63773285
0.64258915
0.65071661
0.67053468
0.66499382
0.78921223
0.67886919
0.665733
0.64036591
0.64408312
0.65060551
0.66897115
0.66740686
0.69900259
0.67372278
0.66373644
0.64047363
0.64426155
0.65043324
0.66564294
0.66417887
0.81179993
0.6664358
0.6606604
0.63938315
0.64408842
0.65194105
0.66351333
0.66595242
0.62286189
0.66064236
0.65675018
0.63964608
0.647048
0.65062994
0.66986958
0.63217179
0.69444828
0.63720316
0.65031863
0.58383599
0.61536328
0.63039509
0.66932624
0.64725918
0.72278323
0.63098369
0.62203845
0.57978258
0.60502458
0.62995688
0.66711967
0.68450884
0.69445061
0.62452293
0.61454815
0.57900063
0.60237331
0.62909713
0.66745879
0.65074399
0.7042151
0.62073178
0.61259649
0.5809606
0.59938024
0.62824667
0.66427739
0.65336124
0.67424375
0.61290816
0.59655135
0.61586096
0.59798483
0.62756358
0.66032954
0.64826798
0.66049975
0.60201701
0.59570948
0.58700288
0.59771249
0.6269951
0.65640665
0.64784646
0.65828943
0.59677026
0.60977582
0.58424109
0.59638697
0.62635483
0.65400994
0.6447163
0.63509155
0.59872949
0.61931042
0.58656378
0.59617688
0.62527165
0.68946363
0.61603769
0.6415648
0.99102472
1.5005935
0.57234285
0.54760258
0.61575116
0.6295769
0.61220176
0.64359155
0.97388952
1.5139144
0.54125659
0.53806504
0.60983189
0.63336364
0.65182907
0.64760252
1.0006188
1.6205629
0.53708429
0.53111291
0.60565783
0.63176225
0.6430587
0.64794721
0.95963126
1.6133609
0.53898097
0.52581803
0.60206007
0.6310682
0.64990443
0.65358142
0.94685101
1.7394213
0.53145937
0.52395896
0.59900044
0.63199203
0.65104779
0.66277125
0.93318218
1.4459464
0.53355781
0.52948252
0.5960901
0.63386901
0.65258349
0.67543795
0.98019832
0.76546016
0.5390398
0.52876333
0.59259399
0.63580648
0.65337018
0.68133495
0.72360666
0.63734732
0.54174861
0.53294794
0.58829372
0.72408206
0.60610635
0.62260778
4.5979044
10.763353
0.24859695
0.52980702
0.58817164
0.56268155
0.49941777
0.61685649
4.4636005
9.8110931
0.26923501
0.50868359
0.57303695
0.56532372
0.50794547
0.67872982
4.1702501
8.8813557
0.40990492
0.49406875
0.56541314
0.60699574
0.53892929
0.68238771
3.6404261
7.3155385
0.46270408
0.51251386
0.56329821
0.59886153
0.56148723
0.64950388
3.0901378
6.3648908
0.520515
0.53567874
0.56740733
0.5842866
0.58844941
0.67497081
1.9817691
4.7197155
0.56989547
0.53997284
0.5682439
0.58341126
0.61747623
0.70836218
1.5046544
4.4883908
0.60575113
0.53181452
0.56907321
0.58838004
0.64065838
0.72481175
1.1823842
2.2288159
0.63861169
0.52350363
0.56817036
0.465779
0.35053786
0.48074869
46.278207
29.843466
-0.98661666
0.63241763
0.58030305
0.44281583
0.25921042
1.5172725
48.792991
33.39912
-0.88303965
0.55720432
0.54032837
0.43404474
0.30678601
2.3174822
41.650265
30.269485
-0.23464761
0.46567365
0.54153757
0.45236942
0.3754543
3.0763241
39.035374
35.558146
0.33702743
0.39094284
0.49718457
0.46686498
0.45338382
3.2860501
29.365458
31.029166
0.70986929
0.40585893
0.47813643
0.43804714
0.52761331
3.2089394
23.773058
38.547879
1.0557919
0.40126146
0.4626897
0.44525456
0.59746386
2.8439534
16.339927
31.358162
1.1900827
0.41588019
0.43998302
0.46704078
0.67695137
2.5741398
9.5424675
30.316058
1.2985731
0.50891483
0.43694803
0.64643452
-0.62617478
10.908253
70.017478
55.241298
2.6127732
0.14015983
0.61781575
0.58609756
-1.1471663
13.49349
69.438391
55.594866
4.447771
-0.064813279
0.56137507
0.40622518
-0.71171577
13.686886
68.813126
56.307543
4.9982558
0.052145802
0.57935742
0.27328033
-0.28396977
19.058223
68.392557
56.991106
6.6478261
0.20745111
0.45256619
0.14998236
0.1027908
17.422787
68.318247
57.47694
6.4608942
0.33301498
0.37207211
0.046073723
0.42546987
15.59968
68.543406
57.138193
7.0775407
0.43366771
0.3065791
-0.015291767
0.67802394
13.020952
71.331716
46.735656
7.8035952
0.59670281
0.27488553
0.045082462
1.1230869
17.597563
65.834459
31.122686
5.6414301
0.74710456
0.33454235
0.6135036
0.30094695
0.59439172
18.17595
62.712171
-0.24667296
0.031086851
0.46082555
0.59827483
0.24334521
0.60082429
20.143692
65.984277
1.4956542
0.061826223
0.40571957
0.57059168
0.23919146
1.1215356
19.376804
66.264566
2.7875514
0.15206444
0.42161326
0.56972254
0.23248701
1.5762784
20.766834
64.469143
3.5327064
0.26540015
0.28826901
0.487592
0.2337496
1.9694869
17.046903
62.46527
4.9347721
0.40241223
0.22285668
0.41293125
0.23387183
2.3668642
17.01126
57.395239
5.6687828
0.59887725
0.1635329
0.32020651
0.21286034
2.7372358
17.027776
59.894406
8.0675683
0.90152917
0.18900815
0.24223916
0.22021017
3.275935
18.012681
47.720309
9.6317184
1.4396396
0.30614248
0.600102
0.38334612
0.34612822
1.0267252
18.165131
1.9702867
0.14472277
0.49492444
0.58833206
0.36914372
0.35254939
0.88741591
25.472804
2.5635051
0.10859529
0.47901605
0.57945949
0.35554595
0.36685813
1.1604715
31.048287
2.3085055
0.20754444
0.51656041
0.56746895
0.34281649
0.37591823
1.3667627
25.12131
2.4931699
0.3433286
0.42361674
0.54902429
0.33118456
0.37310632
1.7691843
18.9295
1.3827558
0.47567094
0.39781738
0.53638556
0.31780589
0.3766659
1.5216345
13.214823
1.9115636
0.59506835
0.36724224
0.48821294
0.30105762
0.39092469
1.3100553
7.6009018
2.0330195
0.76832211
0.36392638
0.44950149
0.27583038
0.40476235
0.72309403
4.1384569
0.80452631
1.0184722
0.40101591
0.57905122
0.49190273
0.54394207
0.54618534
0.78648652
1.2797049
0.30850132
0.47767014
0.57344493
0.4902301
0.50700796
0.53967807
0.60479725
0.74321984
0.29003174
0.45281056
0.57201812
0.48346367
0.5193286
0.54659941
0.68602147
1.1252338
0.26369832
0.46342487
0.56985127
0.47655345
0.51718931
0.53561
0.64647458
1.6987603
0.26844073
0.41380042
0.56367976
0.46706223
0.51229082
0.52747206
0.57521798
1.4230626
0.27430611
0.40158208
0.56591164
0.45535868
0.50735724
0.52346861
0.54344623
3.0690294
0.3605133
0.38833657
0.54510375
0.44177785
0.50336685
0.52434889
0.53997601
1.5482228
0.49075343
0.40839359
0.52503845
0.4296272
0.49849737
0.51886383
0.54719044
0.95745083
0.50907753
0.43148174
0.55586002
0.51551939
0.52051944
0.54141249
0.62836092
0.44985377
0.53636268
0.52146797
0.5562925
0.51174696
0.51789153
0.56237257
0.61618835
0.44428522
0.55798879
0.55461576
0.55261211
0.51209795
0.50652853
0.51950652
0.59831912
0.41796416
0.48839058
0.50325576
0.55337351
0.50420195
0.50684998
0.52368669
0.58570442
0.44654932
0.58474511
0.51214708
0.55334366
0.49815795
0.50507241
0.52026309
0.5631932
0.43807606
0.48195661
0.53006252
0.55039144
0.49170269
0.50344809
0.51601579
0.55684217
0.42566943
0.596992
0.5264894
0.55202947
0.4864653
0.50086536
0.51286091
0.54827999
0.45345838
0.51798879
0.53951952
0.55027937
0.48124462
0.50038929
0.50975114
0.53580171
0.45893292
0.55163701
0.59536518
0.53711353
0.52660355
0.56453433
0.51497455
0.51305015
0.43610283
0.46476009
0.5139685
0.53155619
0.52482273
0.63238358
0.51847589
0.51378303
0.43819953
0.46983029
0.54276417
0.53020921
0.52829434
0.49368163
0.51678484
0.5429853
0.42674587
0.44929487
0.48374363
0.52722679
0.522957
0.49431458
0.49370569
0.52107602
0.50895991
0.57019126
0.49130931
0.52704873
0.51824209
0.49407346
0.49369435
0.51992422
0.42969601
0.48851882
0.50581596
0.52818158
0.51483368
0.49230649
0.49354431
0.51813005
0.44156456
0.48545648
0.49593599
0.52896006
0.5135294
0.49024787
0.49296841
0.5154659
0.44359838
0.4812907
0.52028886
0.52538271
0.51203917
0.48736595
0.49221626
0.51080386
0.45213093
0.47795832
0.48622663
0.51948346
0.5132078
0.51813268
0.47928054
0.49826457
0.4551611
0.5141745
0.49329189
0.51489897
0.5097281
0.50555171
0.46999517
0.49657153
0.45194461
0.50192994
0.51835652
0.51573077
0.50955162
0.52376285
0.50198044
0.50662895
0.45233801
0.49686452
0.49546445
0.51133651
0.50959802
0.48779631
0.48485822
0.51368585
0.45213221
0.50618577
0.49926279
0.51088535
0.50442785
0.4911129
0.48117754
0.47293909
0.48054817
0.54057888
0.50297927
0.51425453
0.50293451
0.48839919
0.48050236
0.47520821
0.44464533
0.47975236
0.50559167
0.51072031
0.50302519
0.48462329
0.48020564
0.47582785
0.4491046
0.47874012
0.50294839
0.50696685
0.49551731
0.48078584
0.47906925
0.47468062
0.4538499
0.47736156
0.49850411
0.48527899
0.48937201
0.47352679
0.45094614
0.4563336
0.45512801
0.48375318
0.46822623
0.49068021
0.48869385
0.47070182
0.45112371
0.4558075
0.45172119
0.47424304
0.46177418
0.48489919
0.48427377
0.48818635
0.45112571
0.45700923
0.45158032
0.49616734
0.47731111
0.48266919
0.48624419
0.47991452
0.4520693
0.46903836
0.45005921
0.49920235
0.46670451
0.47759842
0.48458967
0.46893627
0.46882792
0.46588122
0.44827275
0.47038474
0.46680305
0.48080374
0.48161243
0.47374623
0.46776553
0.45785068
0.44431901
0.56018542
0.473364
0.47856498
0.48785473
0.46614473
0.45409693
0.45480002
0.43568012
0.46051994
0.48186649
0.47540107
0.46858471
0.45938027
0.45217424
0.45278418
0.43624908
0.46057438
0.47607579
0.45943066
0.46010603
0.45066211
0.42846677
0.43137231
0.43283399
0.44554088
0.43900406
0.46800208
0.4627358
0.4503958
0.42928491
0.43213544
0.43041469
0.43033391
0.44210733
0.46070167
0.45514804
0.44970806
0.42973453
0.43270568
0.43553793
0.44218266
0.44027328
0.45944502
0.45507604
0.45270084
0.42945892
0.43410574
0.43381445
0.43649229
0.44287361
0.45741533
0.45536233
0.45170624
0.43040349
0.43751632
0.43972838
0.43097839
0.43609305
0.45616515
0.45188368
0.45214312
0.4398325
0.43691042
0.4320104
0.5128519
0.4381299
0.45749844
0.45933804
0.4370916
0.43788473
0.43458078
0.42294878
0.48970733
0.44285177
0.45266832
0.43881878
0.44158447
0.429874
0.43147782
0.41774732
0.45585112
0.4521605
0.43420027
0.42610753
0.42529493
0.41096566
0.4142738
0.40923438
0.40588575
0.40163999
0.43371356
0.42676101
0.42542916
0.41182298
0.41508336
0.41029872
0.40129513
0.40268251
0.43812997
0.42445414
0.42718351
0.41269379
0.41568345
0.41122811
0.43142215
0.40504743
0.43498685
0.42348587
0.42590544
0.41316745
0.41593318
0.42386993
0.42921023
0.40972454
0.43335585
0.42263333
0.425314
0.41352399
0.41643531
0.41946845
0.45578188
0.40672364
0.43272715
0.42102243
0.42451007
0.41328591
0.41699911
0.415075
0.45937669
0.40839202
0.4308151
0.418718
0.42532245
0.4118834
0.41641073
0.41050289
0.48129199
0.41234939
0.42704607
0.41518046
0.43059111
0.41115527
0.4132538
0.40810049
0.40790951
0.41651401
0.41252911
0.4066877
0.40822313
0.39861111
0.41180066
0.3991532
0.4059799
0.39900243
0.41174133
0.40603326
0.41035264
0.39962125
0.41263245
0.40025151
0.4068259
0.39922164
0.41621071
0.41658117
0.40900004
0.39978275
0.41378334
0.40140559
0.40982785
0.4000014
0.41456446
0.40529955
0.40951621
0.40055716
0.41511929
0.40344309
0.4205619
0.40111159
0.41095493
0.40491642
0.4077958
0.40067969
0.41626508
0.40620897
0.4186848
0.40163474
0.40933042
0.40512529
0.4082148
0.40058564
0.41735957
0.40560448
0.40781264
0.40040035
0.40851576
0.4044961
0.4075741
0.39997446
0.41925083
0.40158747
0.43356868
0.39997325
0.40716322
0.40341322
0.40944
0.39880021
0.44352121
0.40092849
0.39690895
0.39934107
0.39641651
0.39572676
0.39582562
0.39133884
0.39832583
0.39251683
0.39762006
0.39314934
0.39605697
0.39398815
0.39437938
0.39160827
0.39902098
0.39332184
0.3979704
0.39331266
0.39634368
0.40171972
0.39848939
0.39417049
0.39974541
0.39408336
0.39825943
0.39364661
0.40087754
0.40266957
0.39877005
0.3936622
0.40024861
0.39461596
0.40879745
0.39453464
0.40470274
0.39492952
0.39865917
0.39504177
0.40110783
0.39614022
0.40174365
0.3956241
0.39849755
0.39610821
0.43861011
0.39446126
0.40088815
0.40538533
0.40527054
0.3962622
0.39871877
0.39781781
0.41216333
0.393823
0.39946272
0.39847054
0.40519681
0.39612847
0.39803617
0.39840584
0.42096561
0.39326577
0.39986652
0.39719719
0.39818703
0.39865816
0.39864259
0.39468079
0.38789046
0.38854345
0.39259076
0.38968797
0.39544209
0.39188059
0.39867434
0.39348804
0.38701754
0.38889078
0.39311088
0.38999406
0.39554078
0.39222107
0.39925275
0.39341296