/*--------------------------------*- C++ -*----------------------------------*\
  =========                 |
  \\      /  F ield         | OpenFOAM: The Open Source CFD Toolbox
   \\    /   O peration     | Website:  https://openfoam.org
    \\  /    A nd           | Version:  13
     \\/     M anipulation  |
\*---------------------------------------------------------------------------*/
FoamFile
{
    format      ascii;
    class       surfaceScalarField;
    location    "0.05";
    object      phi;
}
// * * * * * * * * * * * * * * * * * * * * * * * * * * * * * * * * * * * * * //

dimensions      [0 3 -1 0 0 0 0];

internalField   nonuniform List<scalar> 
150720
(
1.5161223e-11
2.6797618e-09
8.9922242e-10
-9.3473645e-16
-1.7178323e-11
2.6404719e-09
9.8601223e-10
-1.8351894e-11
2.6445074e-09
9.5081072e-10
4.9818003e-16
2.645814e-09
9.2997818e-10
1.8352806e-11
2.6458141e-09
9.2997815e-10
1.7179064e-11
2.6445077e-09
9.5081056e-10
-1.5160749e-11
2.6404724e-09
9.8601198e-10
2.6797624e-09
8.9922212e-10
-6.8283087e-16
-4.3635565e-11
4.1684405e-09
2.0150651e-09
-4.9664529e-15
-1.0120189e-10
4.0049251e-09
2.1532163e-09
-6.8942667e-11
3.993989e-09
2.0783625e-09
3.2681923e-16
3.9999906e-09
2.0369837e-09
6.8943242e-11
3.999991e-09
2.0369834e-09
1.0120236e-10
3.9939901e-09
2.0783617e-09
4.3635986e-11
4.0049268e-09
2.1532152e-09
4.1684425e-09
2.0150637e-09
-4.5382269e-15
-7.8448611e-11
4.8682941e-09
2.7046673e-09
-1.0198992e-14
-1.4526193e-10
4.5697352e-09
2.8280653e-09
-9.4792627e-11
4.5379916e-09
2.7315901e-09
2.9082267e-16
4.5495923e-09
2.6816674e-09
9.4793164e-11
4.5495931e-09
2.6816671e-09
1.4526249e-10
4.5379937e-09
2.7315891e-09
7.8449179e-11
4.5697383e-09
2.8280638e-09
4.868298e-09
2.7046652e-09
-9.5844388e-15
-9.4564221e-11
5.0411186e-09
3.1137765e-09
-1.6119591e-14
-1.6011112e-10
4.6338515e-09
3.1934512e-09
-1.0348941e-10
4.5861246e-09
3.0872659e-09
4.5783972e-16
4.6024069e-09
3.0357162e-09
1.0349031e-10
4.602408e-09
3.0357159e-09
1.6011209e-10
4.5861277e-09
3.0872649e-09
9.4565177e-11
4.6338562e-09
3.1934497e-09
5.0411248e-09
3.1137743e-09
-1.524559e-14
-9.9407866e-11
4.8777461e-09
3.320782e-09
-2.2428658e-14
-1.588121e-10
4.4017006e-09
3.3495345e-09
-1.0286799e-10
4.3461252e-09
3.2420347e-09
6.8844455e-16
4.3647058e-09
3.1928118e-09
1.0286938e-10
4.3647072e-09
3.1928115e-09
1.588136e-10
4.3461291e-09
3.2420337e-09
9.9409305e-11
4.4017068e-09
3.349533e-09
4.8777547e-09
3.3207799e-09
-2.1213047e-14
-9.5662767e-11
4.5155182e-09
3.3818576e-09
-2.8934891e-14
-1.4811197e-10
4.0135832e-09
3.3645046e-09
-9.6929882e-11
3.9575189e-09
3.2613622e-09
8.9675333e-16
3.9752199e-09
3.2164931e-09
9.6931705e-11
3.9752215e-09
3.2164928e-09
1.4811395e-10
3.9575235e-09
3.2613614e-09
9.5664684e-11
4.0135908e-09
3.3645033e-09
4.5155289e-09
3.3818558e-09
-2.730571e-14
-8.5357797e-11
4.0514249e-09
3.3393835e-09
-3.5550796e-14
-1.3234817e-10
3.5641664e-09
3.286304e-09
-8.8039149e-11
3.5119805e-09
3.1911262e-09
1.0636544e-15
3.5256098e-09
3.1514667e-09
8.8041324e-11
3.5256116e-09
3.1514665e-09
1.3235053e-10
3.5119856e-09
3.1911255e-09
8.5360132e-11
3.5641751e-09
3.2863029e-09
4.0514374e-09
3.3393818e-09
-3.3421158e-14
-6.8630144e-11
3.2362352e-09
-4.1595857e-14
3.5397169e-09
-1.1564743e-10
3.1572122e-09
3.1098269e-09
-7.836573e-11
3.0711254e-09
3.0594287e-09
1.2008423e-15
3.0366158e-09
3.0664824e-09
7.8368221e-11
3.0366157e-09
3.0664843e-09
1.1565019e-10
3.0711248e-09
3.0594342e-09
6.8632939e-11
3.1572113e-09
3.1098364e-09
3.2362338e-09
-3.8905715e-14
3.5397309e-09
4.4366638e-11
4.3643308e-10
4.1842404e-10
-1.3259281e-15
3.7285742e-11
4.5768963e-10
5.354035e-10
1.8669286e-11
4.3925266e-10
5.3017452e-10
5.1012695e-16
4.3445751e-10
5.1418945e-10
-1.8668355e-11
4.3445779e-10
5.1418923e-10
-3.7284986e-11
4.3925341e-10
5.3017378e-10
-4.4366183e-11
4.5769066e-10
5.3540252e-10
4.3643408e-10
4.1842292e-10
-1.0685106e-15
8.9377469e-11
1.1514796e-09
1.2106516e-09
-1.0529943e-14
7.1771555e-11
1.1733014e-09
1.4552105e-09
3.3626745e-11
1.1261224e-09
1.4296375e-09
2.5549428e-16
1.1154673e-09
1.3896004e-09
-3.3626273e-11
1.1154683e-09
1.3895995e-09
-7.1771054e-11
1.1261251e-09
1.4296349e-09
-8.9377015e-11
1.1733051e-09
1.4552068e-09
1.1514836e-09
1.2106471e-09
-9.94745e-15
1.0805689e-10
1.8610594e-09
1.8870549e-09
-2.4330029e-14
8.157313e-11
1.8522e-09
2.1756504e-09
3.5739825e-11
1.7759575e-09
2.1275883e-09
2.5078295e-16
1.7609194e-09
2.0719548e-09
-3.5739259e-11
1.7609213e-09
2.0719536e-09
-8.1572272e-11
1.7759627e-09
2.1275845e-09
-1.0805596e-10
1.8522073e-09
2.1756452e-09
1.8610679e-09
1.8870482e-09
-2.3224474e-14
1.1013695e-10
2.4430681e-09
2.4216718e-09
-4.0920141e-14
7.746208e-11
2.3819275e-09
2.6963985e-09
3.1276181e-11
2.2813589e-09
2.6280504e-09
4.8902437e-16
2.2638637e-09
2.5640476e-09
-3.1275035e-11
2.2638665e-09
2.5640462e-09
-7.7460406e-11
2.2813668e-09
2.6280462e-09
-1.1013517e-10
2.3819392e-09
2.6963926e-09
2.4430822e-09
2.421664e-09
-3.9056112e-14
1.028301e-10
2.8491422e-09
2.8119369e-09
-5.9072087e-14
6.7327696e-11
2.7282134e-09
3.0387511e-09
2.4431385e-11
2.6115946e-09
2.9546952e-09
7.6469555e-16
2.59322e-09
2.8878861e-09
-2.4429581e-11
2.5932238e-09
2.8878846e-09
-6.7325126e-11
2.6116052e-09
2.9546909e-09
-1.0282736e-10
2.7282294e-09
3.038745e-09
2.8491622e-09
2.8119288e-09
-5.6252796e-14
9.095849e-11
3.0752069e-09
3.0649124e-09
-7.7968283e-14
5.541676e-11
2.8989363e-09
3.2293233e-09
1.7354442e-11
2.775905e-09
3.1351142e-09
9.8168671e-16
2.7575936e-09
3.069473e-09
-1.7352104e-11
2.7575982e-09
3.0694715e-09
-5.5413427e-11
2.7759179e-09
3.1351099e-09
-9.0954818e-11
2.8989567e-09
3.2293174e-09
3.0752328e-09
3.0649044e-09
-7.403696e-14
7.7316891e-11
3.1430319e-09
3.1943387e-09
-9.7096241e-14
4.3562489e-11
2.9224679e-09
3.2965268e-09
1.0943578e-11
2.8021631e-09
3.197487e-09
1.1419336e-15
2.7843768e-09
3.135626e-09
-1.0940836e-11
2.784382e-09
3.1356246e-09
-4.3558554e-11
2.8021781e-09
3.1974831e-09
-7.7312359e-11
2.9224921e-09
3.2965213e-09
3.1430631e-09
3.1943311e-09
-9.1899043e-14
6.3654602e-11
3.2100073e-09
-1.1492059e-13
3.1057201e-09
3.27319e-11
3.2625368e-09
2.848066e-09
5.5641112e-12
3.1632958e-09
2.7371606e-09
1.2851272e-15
3.1069428e-09
2.7196126e-09
-5.5609809e-12
3.1069416e-09
2.7196183e-09
-3.272736e-11
3.1632922e-09
2.737177e-09
-6.3649121e-11
3.2625318e-09
2.8480934e-09
3.2100004e-09
-1.0835776e-13
3.1057558e-09
3.665686e-11
9.5890015e-11
2.858781e-10
-9.3726752e-16
3.7912236e-11
1.2527306e-10
4.0887507e-10
2.0478961e-11
1.1994606e-10
4.2766173e-10
5.181065e-16
1.1530204e-10
4.1936585e-10
-2.0478019e-11
1.1530238e-10
4.1936539e-10
-3.7911475e-11
1.1994706e-10
4.2766018e-10
-3.6656565e-11
1.2527455e-10
4.0887306e-10
9.5891666e-11
2.8587546e-10
-7.7345457e-16
8.4147552e-11
3.7329716e-10
8.4911045e-10
-1.3513501e-14
8.8953357e-11
4.4013186e-10
1.1355459e-09
4.7821063e-11
4.1975692e-10
1.170959e-09
2.4522841e-17
4.0450224e-10
1.1482212e-09
-4.7820965e-11
4.0450339e-10
1.1482195e-09
-8.8953087e-11
4.1976039e-10
1.1709537e-09
-8.4147524e-11
4.4013698e-10
1.1355388e-09
3.7330331e-10
8.4910099e-10
-1.3069533e-14
1.1512438e-10
7.6667234e-10
1.3785901e-09
-3.4743505e-14
1.2030889e-10
8.5705761e-10
1.7535402e-09
6.3921013e-11
8.1519932e-10
1.7885337e-09
-1.8580373e-16
7.867753e-10
1.753603e-09
-6.3921102e-11
7.8677749e-10
1.7536004e-09
-1.2030833e-10
8.1520607e-10
1.788526e-09
-1.1512389e-10
8.5706775e-10
1.75353e-09
7.6668513e-10
1.3785761e-09
-3.3669746e-14
1.3180168e-10
1.2018068e-09
1.8547973e-09
-6.173561e-14
1.3460312e-10
1.2924588e-09
2.2581959e-09
7.0592082e-11
1.2257002e-09
2.2815606e-09
-1.6069233e-16
1.1843448e-09
2.2370703e-09
-7.0591886e-11
1.1843482e-09
2.2370672e-09
-1.3460177e-10
1.2257106e-09
2.2815515e-09
-1.3180021e-10
1.2924748e-09
2.2581839e-09
1.2018276e-09
1.8547808e-09
-5.9598696e-14
1.3755076e-10
1.618444e-09
2.2578411e-09
-9.2158283e-14
1.3640394e-10
1.6867093e-09
2.6456474e-09
7.0567684e-11
1.5945509e-09
2.6516808e-09
-1.381217e-16
1.5421995e-09
2.6005992e-09
-7.0567216e-11
1.5422041e-09
2.6005958e-09
-1.3640178e-10
1.5945651e-09
2.651671e-09
-1.3754813e-10
1.6867316e-09
2.6456346e-09
1.6184735e-09
2.2578234e-09
-8.8611416e-14
1.3462851e-10
1.9749753e-09
2.5738769e-09
-1.2428055e-13
1.2923327e-10
2.0031968e-09
2.918231e-09
6.6016771e-11
1.8874485e-09
2.905433e-09
-1.9300319e-16
1.8269844e-09
2.850705e-09
-6.6016208e-11
1.8269901e-09
2.8507015e-09
-1.2923047e-10
1.8874663e-09
2.905423e-09
-1.3462474e-10
2.0032254e-09
2.9182179e-09
1.9750134e-09
2.5738588e-09
-1.1906525e-13
1.2432101e-10
2.2494082e-09
2.7957417e-09
-1.5694535e-13
1.1576391e-10
2.2242008e-09
3.0840799e-09
5.8607539e-11
2.0885849e-09
3.0535069e-09
-2.8235145e-16
2.0234437e-09
2.9977745e-09
-5.8606984e-11
2.0234505e-09
2.997771e-09
-1.1576063e-10
2.088606e-09
3.053497e-09
-1.2431613e-10
2.2242354e-09
3.0840669e-09
2.2494544e-09
2.7957238e-09
-1.4983096e-13
1.0898551e-10
2.9244406e-09
-1.8769998e-13
2.4261772e-09
9.9185453e-11
3.15745e-09
2.3390876e-09
5.0121681e-11
3.1106809e-09
2.1902636e-09
-3.2512827e-16
3.0561666e-09
2.1243419e-09
-5.0121058e-11
3.0561632e-09
2.1243496e-09
-9.9181598e-11
3.1106713e-09
2.1902875e-09
-1.089794e-10
3.1574375e-09
2.3391275e-09
2.9244236e-09
-1.7850814e-13
2.4262303e-09
1.7142987e-11
4.1009672e-11
2.2772511e-10
3.268448e-16
2.1817561e-11
5.6494642e-11
3.4770585e-10
1.3063786e-11
5.3971985e-11
3.8244352e-10
1.6245905e-15
4.9064299e-11
3.8336371e-10
-1.3060948e-11
4.9064399e-11
3.8336356e-10
-2.1815643e-11
5.3972705e-11
3.8244217e-10
-1.7142722e-11
5.6496303e-11
3.4770383e-10
4.1011752e-11
2.2772065e-10
3.4086319e-16
4.7769392e-11
1.5371799e-10
6.8864744e-10
-1.4701107e-14
6.0120177e-11
2.0144359e-10
9.7824615e-10
3.5725116e-11
1.9244704e-10
1.056879e-09
2.800194e-15
1.7658965e-10
1.0564182e-09
-3.5720119e-11
1.7658998e-10
1.0564168e-09
-6.011683e-11
1.9244961e-10
1.0568735e-09
-4.7769127e-11
2.0144894e-10
9.7823847e-10
1.5372596e-10
6.8863252e-10
-1.4858538e-14
7.3153727e-11
3.3075207e-10
1.1284453e-09
-4.303468e-14
9.055487e-11
4.1313585e-10
1.5244468e-09
5.3487098e-11
3.9312296e-10
1.6249256e-09
4.0614128e-15
3.6315626e-10
1.6205194e-09
-5.3479516e-11
3.6315689e-10
1.6205171e-09
-9.0549161e-11
3.9312799e-10
1.6249173e-09
-7.3152205e-11
4.1314607e-10
1.5244359e-09
3.3076857e-10
1.128424e-09
-4.2639334e-14
9.3067591e-11
5.5802105e-10
1.5345419e-09
-8.1127181e-14
1.125226e-10
6.6661373e-10
1.985263e-09
6.602136e-11
6.3079272e-10
2.0903921e-09
5.2348488e-15
5.8584185e-10
2.0804008e-09
-6.6011255e-11
5.858429e-10
2.0803977e-09
-1.1251415e-10
6.3080054e-10
2.0903818e-09
-9.3063978e-11
6.666295e-10
1.9852503e-09
5.5804745e-10
1.5345173e-09
-7.9315528e-14
1.0707397e-10
8.1312561e-10
1.8957881e-09
-1.2545571e-13
1.2606052e-10
9.3286394e-10
2.3604106e-09
7.3504796e-11
8.774345e-10
2.4575947e-09
6.0011884e-15
8.1859015e-10
2.4413497e-09
-7.3492898e-11
8.1859179e-10
2.4413458e-09
-1.2604969e-10
8.7744535e-10
2.457583e-09
-1.0706798e-10
9.3288562e-10
2.3603968e-09
8.1316231e-10
1.8957621e-09
-1.2150135e-13
1.1491814e-10
1.0705509e-09
2.2017066e-09
-1.7313073e-13
1.3163795e-10
1.1838838e-09
2.6504913e-09
7.6434041e-11
1.106754e-09
2.7313175e-09
6.3262494e-15
1.0367013e-09
2.7090216e-09
-7.6421193e-11
1.0367037e-09
2.7090171e-09
-1.3162536e-10
1.106768e-09
2.7313045e-09
-1.1490981e-10
1.1839115e-09
2.6504764e-09
1.0705975e-09
2.2016802e-09
-1.6648243e-13
1.1644415e-10
1.3064266e-09
2.4436438e-09
-2.2205092e-13
1.3024847e-10
1.3958309e-09
2.8583285e-09
7.5577912e-11
1.2973144e-09
2.9176171e-09
6.3561391e-15
1.2199161e-09
2.8901313e-09
-7.5564701e-11
1.2199195e-09
2.8901263e-09
-1.3023462e-10
1.2973317e-09
2.9176032e-09
-1.1643355e-10
1.3958646e-09
2.8583127e-09
1.3064822e-09
2.4436178e-09
-2.1225383e-13
1.1209335e-10
2.6151601e-09
-2.6845003e-13
1.5038822e-09
1.2358559e-10
2.9894726e-09
1.5523161e-09
7.195878e-11
3.0237786e-09
1.4358434e-09
6.2920162e-15
2.9924704e-09
1.3555648e-09
-7.1945413e-11
2.9924651e-09
1.3555693e-09
-1.2357053e-10
3.0237642e-09
1.435864e-09
-1.1208043e-10
2.9894562e-09
1.5523558e-09
2.6151352e-09
-2.5510747e-13
1.5039453e-09
1.0708704e-11
2.12092e-11
1.9580413e-10
3.0790517e-15
1.3860837e-11
3.3570213e-11
3.1098351e-10
8.4456869e-12
3.2295151e-11
3.5556352e-10
4.4566581e-15
2.7595646e-11
3.6420929e-10
-8.4383259e-12
2.7595127e-11
3.6421122e-10
-1.3856746e-11
3.2294916e-11
3.5556567e-10
-1.0708909e-11
3.3571151e-11
3.1098485e-10
2.1211526e-11
1.957981e-10
2.1103348e-15
2.9175383e-11
8.6461262e-11
5.9423444e-10
-1.4443762e-14
3.8801397e-11
1.2262233e-10
8.7956802e-10
2.4100176e-11
1.1709015e-10
9.867852e-10
1.0450764e-14
1.0182354e-10
1.00628e-09
-2.4082508e-11
1.0182167e-10
1.0062832e-09
-3.8791582e-11
1.1708957e-10
9.8678789e-10
-2.9175597e-11
1.2262464e-10
8.79569e-10
8.6469395e-11
5.942157e-10
-1.6642512e-14
4.524614e-11
1.9052642e-10
9.7918387e-10
-4.9830218e-14
6.0309345e-11
2.5319725e-10
1.3788087e-09
3.7795129e-11
2.401564e-10
1.5243736e-09
1.6226865e-14
2.11345e-10
1.5487769e-09
-3.7766828e-11
2.1134131e-10
1.5487805e-09
-6.029204e-11
2.4015537e-10
1.5243767e-09
-4.5243917e-11
2.532011e-10
1.3788113e-09
1.9054304e-10
9.7915914e-10
-5.2752254e-14
5.9058171e-11
3.2542249e-10
1.3406879e-09
-1.0023108e-13
7.8028694e-11
4.1122336e-10
1.8082663e-09
4.9098562e-11
3.8731813e-10
1.9721605e-09
2.1371238e-14
3.4413655e-10
1.9966865e-09
-4.9060414e-11
3.4413106e-10
1.9966897e-09
-7.8003227e-11
3.873167e-10
1.9721633e-09
-5.9051726e-11
4.1122897e-10
1.8082709e-09
3.2544876e-10
1.3406621e-09
-1.0224565e-13
7.0472954e-11
4.8131976e-10
1.6695788e-09
-1.6100311e-13
9.1704636e-11
5.8243827e-10
2.1679641e-09
5.7795019e-11
5.4459327e-10
2.3342292e-09
2.5332306e-14
4.8792711e-10
2.3553288e-09
-5.7748993e-11
4.8792023e-10
2.355331e-09
-9.167167e-11
5.4459178e-10
2.3342306e-09
-7.0461359e-11
5.8244606e-10
2.1679694e-09
4.8135573e-10
1.6695542e-09
-1.6049697e-13
7.9086615e-11
6.4648135e-10
1.9576864e-09
-2.2802033e-13
1.0106241e-10
7.521747e-10
2.4587791e-09
6.3773663e-11
6.9810117e-10
2.6150983e-09
2.8030491e-14
6.3026736e-10
2.630427e-09
-6.3721994e-11
6.3025973e-10
2.6304276e-09
-1.010232e-10
6.9810031e-10
2.6150972e-09
-7.9069534e-11
7.5218529e-10
2.4587835e-09
6.4652629e-10
1.9576637e-09
-2.235663e-13
8.4388348e-11
8.0799011e-10
2.1980447e-09
-2.9801897e-13
1.0613988e-10
9.058599e-10
2.6828917e-09
6.7134083e-11
8.3486028e-10
2.8198638e-09
2.9695279e-14
7.5932174e-10
2.8281813e-09
-6.7078643e-11
7.5931413e-10
2.8281802e-09
-1.0609567e-10
8.3486099e-10
2.8198595e-09
-8.4365713e-11
9.0587412e-10
2.6828939e-09
8.0804269e-10
2.1980241e-09
-2.8835109e-13
8.6058057e-11
2.3852262e-09
-3.6557809e-13
9.5223157e-10
1.0733877e-10
2.8442769e-09
1.0297749e-09
6.8152651e-11
2.9542239e-09
9.4360109e-10
3.069689e-14
2.9553259e-09
8.6458816e-10
-6.8094722e-11
2.9553232e-09
8.6458141e-10
-1.072901e-10
2.9542165e-09
9.4360408e-10
-8.6029916e-11
2.8442758e-09
1.0297943e-09
2.3852076e-09
-3.494178e-13
9.5228979e-10
6.2375651e-12
1.2977219e-11
1.7658216e-10
7.1893013e-15
8.2008268e-12
2.1695524e-11
2.8732472e-10
5.0345148e-12
2.097664e-11
3.3775319e-10
9.1200964e-15
1.7030099e-11
3.5220459e-10
-5.0204623e-12
1.7028265e-11
3.5221253e-10
-8.1948598e-12
2.0973856e-11
3.3776621e-10
-6.2399575e-12
2.1692598e-11
2.8733735e-10
1.2976544e-11
1.7657676e-10
4.8480873e-15
1.7344302e-11
5.1982484e-11
5.3789551e-10
-1.0635685e-14
2.3795369e-11
7.8869302e-11
8.1594318e-10
1.518448e-11
7.5799711e-11
9.4057302e-10
2.3006075e-14
6.3014145e-11
9.7545741e-10
-1.5147794e-11
6.300758e-11
9.7547469e-10
-2.3779505e-11
7.5790812e-11
9.4060265e-10
-1.7349724e-11
7.8857659e-11
8.1597415e-10
5.198039e-11
5.3788067e-10
-1.8543685e-14
2.7248046e-11
1.1490532e-10
8.8906369e-10
-5.0702798e-14
3.7959335e-11
1.6312878e-10
1.2838379e-09
2.4767239e-11
1.5560769e-10
1.4577577e-09
3.6307167e-14
1.3147854e-10
1.5050434e-09
-2.4707222e-11
1.3146564e-10
1.5050659e-09
-3.7929799e-11
1.5559101e-10
1.4577991e-09
-2.725224e-11
1.6310532e-10
1.2838861e-09
1.1490244e-10
8.8904963e-10
-6.4782581e-14
3.6164692e-11
1.9793622e-10
1.2216046e-09
-1.1228999e-13
5.0521114e-11
2.6605855e-10
1.6909801e-09
3.3428377e-11
2.5169991e-10
1.893161e-09
4.8368929e-14
2.1548091e-10
1.9460641e-09
-3.3346262e-11
2.1546148e-10
1.9460885e-09
-5.0475809e-11
2.5167516e-10
1.8932087e-09
-3.6164078e-11
2.6602303e-10
1.6910415e-09
1.9793301e-10
1.2215976e-09
-1.3015386e-13
4.4102581e-11
2.9570708e-10
1.5278954e-09
-1.8999153e-13
6.1319517e-11
3.7904237e-10
2.0377633e-09
4.0940418e-11
3.5555268e-10
2.2507555e-09
5.829722e-14
3.0790512e-10
2.3037867e-09
-4.0839419e-11
3.0787999e-10
2.3038102e-09
-6.125859e-11
3.5552085e-10
2.250804e-09
-4.4094603e-11
3.7899668e-10
2.0378317e-09
2.95704e-10
1.5278972e-09
-2.0856088e-13
5.0881852e-11
4.0165572e-10
1.8011346e-09
-2.7867577e-13
7.0102732e-11
4.9340607e-10
2.3251945e-09
4.7099407e-11
4.589325e-10
2.5347218e-09
6.587644e-14
4.0167861e-10
2.583687e-09
-4.6983398e-11
4.016493e-10
2.5837076e-09
-7.0027579e-11
4.5889559e-10
2.5347666e-09
-5.0864798e-11
4.9335358e-10
2.3252639e-09
4.0165322e-10
1.8011443e-09
-2.9461261e-13
5.6172861e-11
5.0844686e-10
2.0354547e-09
-3.7397501e-13
7.6719336e-11
6.0054472e-10
2.5552066e-09
5.179001e-11
5.5419541e-10
2.7495302e-09
7.1355818e-14
4.9008021e-10
2.7914983e-09
-5.1662554e-11
4.9004861e-10
2.7915148e-09
-7.6631691e-11
5.5415617e-10
2.7495681e-09
-5.6145552e-11
6.0048963e-10
2.5552717e-09
5.0844517e-10
2.0354705e-09
-3.8388561e-13
5.9545081e-11
2.2259996e-09
-4.6894383e-13
6.0859728e-10
8.1093537e-11
2.7309522e-09
6.923209e-10
5.4959147e-11
2.8998746e-09
6.3467918e-10
7.5284027e-14
2.9331867e-09
5.6710333e-10
-5.4823166e-11
2.9331986e-09
5.6707168e-10
-8.099424e-11
2.8999038e-09
6.3463997e-10
-5.9507199e-11
2.7310092e-09
6.9226927e-10
2.2260194e-09
-4.688523e-13
6.0859504e-10
3.9241173e-12
7.9821384e-12
1.6466322e-10
1.2688128e-14
5.0164922e-12
1.4429186e-11
2.7180316e-10
3.01419e-12
1.4224462e-11
3.2553103e-10
1.6189316e-14
1.1222791e-11
3.439798e-10
-2.9915949e-12
1.1218091e-11
3.4400223e-10
-5.0109765e-12
1.4214837e-11
3.2557076e-10
-3.932607e-12
1.441361e-11
2.7184537e-10
7.969113e-12
1.6466691e-10
8.1272162e-15
1.0792718e-11
3.2590028e-11
5.024932e-10
1.7001023e-15
1.4753442e-11
5.2594437e-11
7.738172e-10
9.4602979e-12
5.1356762e-11
9.0873387e-10
4.1357466e-14
4.1593757e-11
9.5450538e-10
-9.3996117e-12
4.1576695e-11
9.5455705e-10
-1.4738028e-11
5.1326095e-11
9.088298e-10
-1.0815098e-11
5.2539601e-11
7.7392523e-10
3.2549014e-11
5.0250638e-10
-2.0702753e-14
1.6920741e-11
7.2662964e-11
8.3210498e-10
-3.4967263e-14
2.3857353e-11
1.0897382e-10
1.2205219e-09
1.5886092e-11
1.0539575e-10
1.41169e-09
6.505741e-14
8.6923957e-11
1.4755342e-09
-1.5786023e-11
8.689036e-11
1.4756034e-09
-2.3824751e-11
1.0533893e-10
1.411825e-09
-1.6950768e-11
1.0886797e-10
1.2206837e-09
7.258714e-11
8.3214003e-10
-7.9286764e-14
2.2533768e-11
1.2593402e-10
1.1458998e-09
-1.000843e-13
3.2293573e-11
1.7810454e-10
1.6120896e-09
2.2055076e-11
1.7060537e-10
1.8381899e-09
8.6559262e-14
1.4282552e-10
1.9121311e-09
-2.1917218e-11
1.4277477e-10
1.9122079e-09
-3.2238668e-11
1.7052199e-10
1.8383471e-09
-2.2565382e-11
1.7794684e-10
1.6122894e-09
1.2582176e-10
1.1459619e-09
-1.6431721e-13
2.7730002e-11
1.8923196e-10
1.4370562e-09
-1.8877981e-13
4.0021006e-11
2.5453318e-10
1.9490437e-09
2.7811297e-11
2.4152323e-10
2.1920474e-09
1.0464797e-13
2.0491211e-10
2.2694068e-09
-2.7640144e-11
2.0484613e-10
2.2694836e-09
-3.9942061e-11
2.4141645e-10
2.1922115e-09
-2.7757712e-11
2.5433066e-10
1.9492636e-09
1.8908614e-10
1.4371431e-09
-2.6797544e-13
3.2471672e-11
2.5868092e-10
1.6995098e-09
-2.9582178e-13
4.6901299e-11
3.3288992e-10
2.2324082e-09
3.2988063e-11
3.1300121e-10
2.4771571e-09
1.1901239e-13
2.6891366e-10
2.5525545e-09
-3.2789212e-11
2.6883601e-10
2.5526259e-09
-4.6798697e-11
3.1287676e-10
2.4773158e-09
-3.2490672e-11
3.3265447e-10
2.232632e-09
2.5850753e-10
1.6996154e-09
-3.8314888e-13
3.6588866e-11
3.299738e-10
1.9279893e-09
-4.163306e-13
5.2805544e-11
4.0794859e-10
2.4639313e-09
3.7442343e-11
3.8035903e-10
2.6975356e-09
1.2995817e-13
3.3083921e-10
2.7668852e-09
-3.7221134e-11
3.3075423e-10
2.7669477e-09
-5.2680563e-11
3.8022411e-10
2.6976802e-09
-3.6594926e-11
4.0769458e-10
2.464146e-09
3.2978021e-10
1.9281067e-09
-5.0380812e-13
3.9736112e-11
2.1180282e-09
-5.428251e-13
3.9875189e-10
5.7568251e-11
2.6463156e-09
4.7475305e-10
4.1033269e-11
2.8572453e-09
4.395233e-10
1.3833605e-13
2.9178008e-09
3.8712e-10
-4.0794487e-11
2.9178525e-09
3.8703309e-10
-5.7420873e-11
2.8573702e-09
4.3938411e-10
-3.972723e-11
2.6465113e-09
4.7449878e-10
2.1181507e-09
-6.1985728e-13
3.9854155e-10
2.5497383e-12
5.12291e-12
1.5697175e-10
1.8816196e-14
3.1780226e-12
9.8154005e-12
2.6135948e-10
1.860721e-12
9.971813e-12
3.1687652e-10
2.8427659e-14
7.8528964e-12
3.379592e-10
-1.8243484e-12
7.8409676e-12
3.3801404e-10
-3.1751606e-12
9.9449684e-12
3.169766e-10
-2.5702889e-12
9.7660819e-12
2.6147441e-10
5.0733147e-12
1.5701134e-10
1.196916e-14
6.9547185e-12
2.1084411e-11
4.7953999e-10
3.6995044e-14
9.4022293e-12
3.5918157e-11
7.4526693e-10
6.0080756e-12
3.6060968e-11
8.8603887e-10
7.1843316e-14
2.9153548e-11
9.3914096e-10
-5.9104848e-12
2.9111686e-11
9.3926866e-10
-9.3949769e-12
3.5975198e-11
8.8628407e-10
-7.0140018e-12
3.5748791e-11
7.4556155e-10
2.0930022e-11
4.7965884e-10
-2.31665e-14
1.0853761e-11
4.7340549e-11
7.9496925e-10
2.5834082e-14
1.5298456e-11
7.4698372e-11
1.177297e-09
1.0288411e-11
7.4135136e-11
1.3786258e-09
1.1086838e-13
6.1028092e-11
1.4538372e-09
-1.0129605e-11
6.0947048e-11
1.4540085e-09
-1.52755e-11
7.3976591e-11
1.3789695e-09
-1.0944766e-11
7.4374721e-11
1.1777271e-09
4.7049393e-11
7.9517216e-10
-9.6266739e-14
1.4435732e-11
8.2604926e-11
1.0962193e-09
-1.9567128e-14
2.0894716e-11
1.2256933e-10
1.5577597e-09
1.4556332e-11
1.2027909e-10
1.7983843e-09
1.4507777e-13
1.0050414e-10
1.8870663e-09
-1.4340192e-11
1.003828e-10
1.8872574e-09
-2.0847067e-11
1.2004738e-10
1.7987832e-09
-1.4550196e-11
1.2208947e-10
1.5582777e-09
8.2168518e-11
1.0964974e-09
-2.0476619e-13
1.7811414e-11
1.2496533e-10
1.3769825e-09
-9.8136889e-14
2.6211263e-11
1.7595e-10
1.8872631e-09
1.8721086e-11
1.7080275e-10
2.1490139e-09
1.7319312e-13
1.4465753e-10
2.2438013e-09
-1.8455118e-11
1.4450057e-10
2.2439941e-09
-2.6134476e-11
1.7050719e-10
2.149431e-09
-1.7939746e-11
1.7533472e-10
1.8878236e-09
1.2439406e-10
1.3773167e-09
-3.3894252e-13
2.100205e-11
1.7202613e-10
1.6316531e-09
-2.0620682e-13
3.1190683e-11
2.3133134e-10
2.1668382e-09
2.2673268e-11
2.2226446e-10
2.4342128e-09
1.9513664e-13
1.9067987e-10
2.5290103e-09
-2.2366106e-11
1.9049553e-10
2.5291922e-09
-3.108326e-11
2.2192061e-10
2.4346195e-09
-2.1134142e-11
2.3061526e-10
2.1674024e-09
1.7134398e-10
1.632021e-09
-4.8973324e-13
2.3929476e-11
2.2109752e-10
1.8553296e-09
-3.4113229e-13
3.5758989e-11
2.8531244e-10
2.3981206e-09
2.6302212e-11
2.7155533e-10
2.6577015e-09
2.1159181e-13
2.3596633e-10
2.7476893e-09
-2.5961799e-11
2.3576447e-10
2.7478521e-09
-3.5620766e-11
2.7118201e-10
2.6580777e-09
-2.4055097e-11
2.8453657e-10
2.398659e-09
2.2033464e-10
1.8557101e-09
-6.4925286e-13
2.6344388e-11
2.0438002e-09
-4.9738987e-13
2.6947852e-10
3.9783393e-11
2.5835636e-09
3.3462548e-10
2.9478319e-11
2.8231593e-09
3.1594639e-10
2.2413457e-13
2.904855e-09
2.781663e-10
-2.9111934e-11
2.9049944e-09
2.7795873e-10
-3.961169e-11
2.8234922e-09
3.1555973e-10
-2.6457463e-11
2.584055e-09
3.3383869e-10
2.0441749e-09
-8.0440411e-13
2.6865736e-10
1.7459846e-12
3.486692e-12
1.5169892e-10
4.0154635e-14
2.1577512e-12
6.9391245e-12
2.5400859e-10
1.2512909e-12
7.3190815e-12
3.104639e-10
5.4194936e-14
5.9021445e-12
3.3325415e-10
-1.1875646e-12
5.8723446e-12
3.3338345e-10
-2.1595164e-12
7.2472958e-12
3.1070126e-10
-1.7905288e-12
6.799165e-12
2.5430626e-10
3.3397589e-12
1.5186512e-10
1.5932187e-14
4.6984699e-12
1.4395138e-11
4.6379494e-10
1.381382e-13
6.3288552e-12
2.547053e-11
7.2510514e-10
4.0526772e-12
2.6470832e-11
8.6916329e-10
1.3438342e-13
2.1844849e-11
9.2711655e-10
-3.883658e-12
2.1736891e-11
9.2742216e-10
-6.3389891e-12
2.6243554e-11
8.6974314e-10
-4.8360208e-12
2.5003536e-11
7.2585421e-10
1.392786e-11
4.6426136e-10
-2.6643332e-14
7.2649619e-12
3.2411397e-11
7.6946953e-10
2.1850318e-13
1.025839e-11
5.3119131e-11
1.146655e-09
6.9670142e-12
5.4467731e-11
1.3539203e-09
2.0133794e-13
4.5666008e-11
1.4367818e-09
-6.7000857e-12
4.5456207e-11
1.4371906e-09
-1.0262616e-11
5.4048768e-11
1.3547268e-09
-7.4915084e-12
5.2247413e-11
1.1477121e-09
3.153716e-11
7.7018776e-10
-1.1640567e-13
9.5976004e-12
5.6734776e-11
1.0620381e-09
2.602456e-13
1.4004931e-11
8.7428409e-11
1.5190431e-09
9.914466e-12
8.8511004e-11
1.7684315e-09
2.5586836e-13
7.5186769e-11
1.8672041e-09
-9.5620663e-12
7.4874524e-11
1.867657e-09
-1.3990495e-11
8.7901822e-11
1.7693586e-09
-9.903536e-12
8.6154175e-11
1.520284e-09
5.5435914e-11
1.0629471e-09
-2.5207179e-13
1.1801194e-11
8.6150818e-11
1.3355134e-09
2.519309e-13
1.7618893e-11
1.2595054e-10
1.8429233e-09
1.2853595e-11
1.259789e-10
2.1163113e-09
2.9736407e-13
1.0829925e-10
2.2232451e-09
-1.24317e-11
1.0789924e-10
2.2236985e-09
-1.7578382e-11
1.2520631e-10
2.1172732e-09
-1.217047e-11
1.2433102e-10
1.8442388e-09
8.4463668e-11
1.3365406e-09
-4.220488e-13
1.3919803e-11
1.1911769e-10
1.5845775e-09
1.8900904e-13
2.1092511e-11
1.6628605e-10
2.11933e-09
1.5724807e-11
1.6443205e-10
2.4011274e-09
3.2688161e-13
1.42999e-10
2.5097085e-09
-1.524934e-11
1.4253431e-10
2.5101333e-09
-2.1021872e-11
1.6353777e-10
2.4020606e-09
-1.4332439e-11
1.6441115e-10
2.1206328e-09
1.1711474e-10
1.5856527e-09
-6.151426e-13
1.592452e-11
1.538825e-10
1.8045684e-09
7.185583e-14
2.4397089e-11
2.06097e-10
2.3498371e-09
1.8459312e-11
2.0165774e-10
2.6264136e-09
3.4636915e-13
1.7742973e-10
2.7313715e-09
-1.7943741e-11
1.7692616e-10
2.7317504e-09
-2.4293545e-11
2.0069017e-10
2.6272751e-09
-1.6358328e-11
2.0407119e-10
2.3510637e-09
1.5165491e-10
1.805633e-09
-8.2132796e-13
1.7640619e-11
1.9914554e-09
-1.0412514e-13
1.8869086e-10
2.74484e-11
2.5367589e-09
2.4309394e-10
2.0963255e-11
2.7956121e-09
2.3569008e-10
3.59282e-13
2.8929863e-09
2.099024e-10
-2.041974e-11
2.8933099e-09
2.0938966e-10
-2.7303718e-11
2.7963754e-09
2.3469096e-10
-1.8079245e-11
2.5378669e-09
2.4103476e-10
1.9924625e-09
-1.024008e-12
1.8631209e-10
1.2459446e-12
2.6823946e-12
1.4766645e-10
1.0413503e-13
1.5838905e-12
5.1948015e-12
2.4847584e-10
9.5100339e-13
5.618273e-12
3.0547852e-10
1.0896709e-13
4.6839325e-12
3.2941225e-10
-8.1520565e-13
4.5926868e-12
3.2971494e-10
-1.5564368e-12
5.42384e-12
3.0601865e-10
-1.311632e-12
4.7775601e-12
2.492839e-10
2.2538794e-12
1.4827935e-10
2.0255717e-14
3.2797085e-12
1.0895854e-11
4.5186818e-10
4.3358688e-13
4.5500414e-12
1.90532e-11
7.0997641e-10
3.001813e-12
2.0299655e-11
8.5603014e-10
2.6761893e-13
1.726262e-11
9.1727206e-10
-2.6505123e-12
1.6966827e-11
9.1796615e-10
-4.5058961e-12
1.9677848e-11
8.5734452e-10
-3.5066728e-12
1.7757779e-11
7.1187477e-10
9.5629956e-12
4.5346418e-10
-1.8614787e-14
4.9881506e-12
2.4279399e-11
7.5032271e-10
7.7512571e-13
7.2814151e-12
3.9709101e-11
1.1237058e-09
5.0877444e-12
4.1757459e-11
1.3346562e-09
3.9049002e-13
3.5983327e-11
1.4227583e-09
-4.5611426e-12
3.5441189e-11
1.4236679e-09
-7.2357521e-12
4.0643969e-11
1.3364353e-09
-5.4076182e-12
3.7416977e-11
1.1262248e-09
2.1781338e-11
7.5267933e-10
-1.175339e-13
6.4989727e-12
4.2172171e-11
1.03658e-09
1.0663715e-12
9.8482321e-12
6.5337268e-11
1.4900656e-09
7.1709241e-12
6.7870835e-11
1.7449954e-09
4.8159787e-13
5.9120591e-11
1.8507562e-09
-6.5103281e-12
5.8345379e-11
1.8517447e-09
-9.802304e-12
6.6294182e-11
1.7470003e-09
-7.1180527e-12
6.2097396e-11
1.4929193e-09
3.8481877e-11
1.0394078e-09
-2.7927815e-13
7.9117722e-12
6.3683882e-11
1.3048205e-09
1.2693933e-12
1.2313417e-11
9.4151151e-11
1.8097078e-09
9.2432628e-12
9.6667647e-11
2.0905846e-09
5.4298163e-13
8.503696e-11
2.206029e-09
-8.4885052e-12
8.4075114e-11
2.2070003e-09
-1.2266198e-11
9.4710148e-11
2.092635e-09
-8.71206e-12
9.0122392e-11
1.8126597e-09
5.8937231e-11
1.3078613e-09
-4.8815193e-13
9.2809622e-12
8.7740003e-11
1.5498773e-09
1.3631021e-12
1.4697941e-11
1.2441788e-10
2.0836463e-09
1.1282284e-11
1.2632007e-10
2.3748906e-09
5.7908035e-13
1.1219474e-10
2.4932539e-09
-1.0467646e-11
1.1110759e-10
2.4941476e-09
-1.464672e-11
1.2409239e-10
2.3768574e-09
-1.022811e-11
1.1982335e-10
2.0865132e-09
8.2166785e-11
1.5529244e-09
-7.2933755e-13
1.0605224e-11
1.1314646e-10
1.7672186e-09
1.3381017e-12
1.7004717e-11
1.544526e-10
2.3134029e-09
1.3255444e-11
1.5516708e-10
2.6013158e-09
5.95275e-13
1.3917756e-10
2.7170489e-09
-1.240727e-11
1.3802791e-10
2.7178326e-09
-1.6944182e-11
1.5278934e-10
2.6031151e-09
-1.1655814e-11
1.4954213e-10
2.3160566e-09
1.0701314e-10
1.7701204e-09
-9.8961682e-13
1.1766342e-11
1.9529234e-09
1.1765069e-12
1.3873562e-10
1.9190483e-11
2.5012004e-09
1.8258692e-10
1.5104812e-11
2.7731443e-09
1.8172054e-10
5.9917957e-13
2.8819808e-09
1.6468872e-10
-1.4245161e-11
2.8826452e-09
1.6353698e-10
-1.9102812e-11
2.7747298e-09
1.7929261e-10
-1.2876948e-11
2.5035608e-09
1.776224e-10
1.9555691e-09
-1.2485371e-12
1.3227813e-10
9.3342269e-13
2.5938132e-12
1.4375348e-10
3.8573654e-13
1.2819798e-12
4.2913079e-12
2.4383598e-10
8.5581288e-13
4.5091144e-12
3.0139557e-10
2.5667747e-13
3.8086143e-12
3.2620278e-10
-4.7573128e-13
3.4159467e-12
3.270314e-10
-1.0082443e-12
3.8681246e-12
3.0268304e-10
-1.4203966e-12
3.4988574e-12
2.4619719e-10
1.1832317e-12
1.4574397e-10
-6.8248472e-14
2.3217181e-12
1.0122253e-11
4.4061422e-10
1.4038035e-12
3.5621281e-12
1.5490558e-11
6.9753675e-10
2.5646408e-12
1.6207292e-11
8.4532945e-10
6.2119998e-13
1.3952451e-11
9.0907166e-10
-1.6154152e-12
1.2720656e-11
9.1089805e-10
-2.4118067e-12
1.3695368e-11
8.4831367e-10
-1.0483534e-12
1.2326362e-11
7.0168381e-10
7.2660381e-12
4.4587591e-10
4.5711494e-13
3.385733e-12
2.1710968e-11
7.3293789e-10
2.4103713e-12
5.5708195e-12
3.1919614e-11
1.1050917e-09
4.2037013e-12
3.3236066e-11
1.3189945e-09
8.745925e-13
2.8987975e-11
1.4110519e-09
-2.9094929e-12
2.6830992e-11
1.4133416e-09
-4.655191e-12
2.9300022e-11
1.3225763e-09
-3.1623433e-12
2.658307e-11
1.1104752e-09
1.6085938e-11
7.4029145e-10
4.0563114e-13
4.2575814e-12
3.6498078e-11
1.0142564e-09
3.2788261e-12
7.381805e-12
5.2063062e-11
1.466798e-09
5.7616471e-12
5.3904248e-11