/*--------------------------------*- C++ -*----------------------------------*\
  =========                 |
  \\      /  F ield         | OpenFOAM: The Open Source CFD Toolbox
   \\    /   O peration     | Website:  https://openfoam.org
    \\  /    A nd           | Version:  13
     \\/     M anipulation  |
\*---------------------------------------------------------------------------*/
FoamFile
{
    format      ascii;
    class       volVectorField;
    location    "0.05";
    object      U;
}
// * * * * * * * * * * * * * * * * * * * * * * * * * * * * * * * * * * * * * //

dimensions      [0 1 -1 0 0 0 0];

internalField   nonuniform List<vector> 
51200
(
(0.053551922 0.012985253 0.011916929)
(0.058613626 0.0070083511 0.012123316)
(0.05726436 0.0031527101 0.012209393)
(0.056539206 0.00083599831 0.012238995)
(0.056539206 -0.00083593942 0.012238995)
(0.05726436 -0.0031526604 0.012209394)
(0.058613624 -0.0070083135 0.012123318)
(0.053551919 -0.012985231 0.01191693)
(0.12321674 0.032053385 0.034032349)
(0.1301543 0.014362012 0.033284967)
(0.12712265 0.0065244883 0.03327124)
(0.12570837 0.0017610586 0.033298717)
(0.12570837 -0.0017610216 0.033298719)
(0.12712264 -0.0065244615 0.033271246)
(0.13015428 -0.014361989 0.033284976)
(0.12321671 -0.032053371 0.034032359)
(0.16720751 0.041805558 0.046664999)
(0.17251691 0.018158558 0.044422097)
(0.1685984 0.0083103101 0.044205437)
(0.16694015 0.0022626228 0.044290025)
(0.16694014 -0.0022625899 0.044290031)
(0.16859839 -0.0083102867 0.044205453)
(0.17251689 -0.018158534 0.04442212)
(0.16720747 -0.041805551 0.046665026)
(0.19435179 0.045604905 0.052621454)
(0.19692486 0.019902032 0.048916695)
(0.19266826 0.0091396399 0.048492647)
(0.19100565 0.0025076883 0.048642492)
(0.19100564 -0.0025076344 0.048642501)
(0.19266825 -0.0091395964 0.048492674)
(0.19692484 -0.01990199 0.048916735)
(0.19435176 -0.045604902 0.052621505)
(0.21032467 0.046065638 0.054469111)
(0.21018825 0.020454306 0.049602188)
(0.20594812 0.0093907952 0.04902858)
(0.2043984 0.0025971708 0.049226541)
(0.2043984 -0.0025970881 0.049226555)
(0.20594811 -0.009390724 0.049028618)
(0.21018823 -0.020454241 0.049602247)
(0.21032464 -0.046065635 0.05446919)
(0.21889019 0.044628151 0.05365965)
(0.21654875 0.020313094 0.048039272)
(0.21253961 0.0092963548 0.047393192)
(0.21115045 0.0025931778 0.047608667)
(0.21115045 -0.002593069 0.047608685)
(0.2125396 -0.0092962584 0.047393241)
(0.21654873 -0.02031301 0.04803935)
(0.21889017 -0.044628147 0.053659759)
(0.22260993 0.042101412 0.051099387)
(0.21869368 0.019774129 0.045194102)
(0.21503884 0.0089971978 0.044534006)
(0.21382233 0.0025332183 0.044729532)
(0.21382233 -0.0025330885 0.044729552)
(0.21503884 -0.0089970816 0.044534064)
(0.21869367 -0.019774032 0.045194198)
(0.22260991 -0.042101407 0.051099526)
(0.22318734 0.039075668 0.047592176)
(0.21829867 0.018952284 0.041634417)
(0.21506687 0.0085840625 0.041061323)
(0.21401957 0.0024396646 0.041204555)
(0.21401957 -0.0024395165 0.041204578)
(0.21506687 -0.0085839271 0.041061389)
(0.21829866 -0.018952172 0.04163453)
(0.22318733 -0.039075655 0.047592341)
(0.036084483 0.0033514921 0.0012101434)
(0.041681088 0.0037333219 0.001320402)
(0.039934616 0.0021875996 0.0012544932)
(0.038631184 0.00070269429 0.0012351608)
(0.03863118 -0.00070263476 0.0012351612)
(0.039934599 -0.0021875492 0.0012544944)
(0.041681063 -0.0037332837 0.0013204036)
(0.036084453 -0.0033514741 0.0012101445)
(0.095971253 0.011241442 0.0074178648)
(0.1066553 0.010511411 0.0077258453)
(0.10215198 0.0059237121 0.0074258102)
(0.099148344 0.0018684545 0.0073479878)
(0.099148321 -0.0018684273 0.0073479931)
(0.1021519 -0.0059236909 0.0074258247)
(0.10665519 -0.010511388 0.0077258649)
(0.095971113 -0.011241436 0.0074178849)
(0.14525798 0.019373751 0.015130394)
(0.1567 0.016126094 0.015279037)
(0.15012331 0.0088820175 0.014663256)
(0.14611717 0.002774642 0.014528168)
(0.14611713 -0.0027746149 0.014528181)
(0.1501232 -0.0088819919 0.014663293)
(0.15669985 -0.016126059 0.01527909)
(0.14525777 -0.019373756 0.015130452)
(0.18440553 0.026418784 0.022699177)
(0.19379772 0.020369694 0.022374447)
(0.18578118 0.011050496 0.021440999)
(0.18128846 0.0034338059 0.021265381)
(0.18128842 -0.003433749 0.021265405)
(0.18578106 -0.011050438 0.021441066)
(0.19379754 -0.020369628 0.022374544)
(0.18440529 -0.026418795 0.022699291)
(0.21403645 0.031783642 0.02912855)
(0.21988345 0.023288402 0.028137666)
(0.21099626 0.012505138 0.026937043)
(0.20637721 0.0038774034 0.026737866)
(0.20637717 -0.003877312 0.026737901)
(0.21099614 -0.012505044 0.026937143)
(0.21988328 -0.023288304 0.028137815)
(0.21403621 -0.031783659 0.029128733)
(0.23511343 0.03541419 0.034028799)
(0.23694111 0.025047128 0.032310439)
(0.22766761 0.013359558 0.030925967)
(0.22315679 0.0041434688 0.030715507)
(0.22315676 -0.0041433501 0.030715554)
(0.2276675 -0.013359437 0.0309261)
(0.23694095 -0.025047009 0.032310645)
(0.2351132 -0.035414217 0.034029059)
(0.24880514 0.037521093 0.037379738)
(0.24685379 0.025827906 0.034962589)
(0.23758176 0.013730209 0.033492807)
(0.2333213 0.0042682876 0.033279092)
(0.23332127 -0.0042681487 0.03327915)
(0.23758166 -0.013730069 0.033492973)
(0.24685364 -0.025827777 0.034962854)
(0.24880493 -0.037521129 0.037380078)
(0.25626119 0.038361096 0.039316802)
(0.25125268 0.025773272 0.03624217)
(0.24226631 0.013719879 0.034818781)
(0.23833802 0.0042820709 0.034608179)
(0.238338 -0.004281913 0.034608247)
(0.24226622 -0.013719721 0.034818976)
(0.25125255 -0.025773131 0.03624249)
(0.256261 -0.038361131 0.039317217)
(0.016241773 0.0015027056 8.4106444e-06)
(0.023346319 0.0028631244 9.5156032e-05)
(0.024061611 0.001938325 9.5929398e-05)
(0.023413133 0.00064679896 9.1134331e-05)
(0.023413112 -0.00064674011 9.1134913e-05)
(0.024061545 -0.0019382718 9.5930848e-05)
(0.023346233 -0.0028630935 9.5158478e-05)
(0.016241674 -0.0015026935 8.4125175e-06)
(0.052257371 0.0051362542 0.0019503478)
(0.069019617 0.0081109122 0.0024221628)
(0.069892931 0.0052887491 0.0023175243)
(0.068041196 0.0017563041 0.0022293815)
(0.068041118 -0.0017563083 0.0022293878)
(0.069892697 -0.0052887415 0.0023175433)
(0.069019299 -0.008110917 0.0024221905)
(0.05225698 -0.0051362752 0.0019503798)
(0.089672946 0.0096936569 0.0054344488)
(0.11178099 0.012887923 0.0062553067)
(0.11188737 0.0081359688 0.0059625351)
(0.10899531 0.002683807 0.0057486475)
(0.10899519 -0.0026838369 0.0057486634)
(0.11188702 -0.0081359678 0.0059625839)
(0.11178052 -0.012887923 0.0062553791)
(0.089672342 -0.0096937049 0.0054345383)
(0.12626665 0.014796794 0.010103834)
(0.15000153 0.01705153 0.011101121)
(0.14880774 0.010463868 0.010548771)
(0.14509951 0.0034302598 0.010185393)
(0.14509936 -0.0034302861 0.010185421)
(0.14880732 -0.010463847 0.010548859)
(0.15000096 -0.017051502 0.011101254)
(0.12626591 -0.01479686 0.010104005)
(0.16003774 0.019903959 0.015308422)
(0.18253538 0.020458201 0.016228627)
(0.17985227 0.012260712 0.015371314)
(0.17557854 0.0039996241 0.014858155)
(0.17557838 -0.003999647 0.014858197)
(0.17985182 -0.012260676 0.015371446)
(0.18253476 -0.020458146 0.016228833)
(0.16003692 -0.019904041 0.015308692)
(0.18945561 0.024592582 0.020519467)
(0.20884486 0.023016616 0.021105661)
(0.20473289 0.013534179 0.019921175)
(0.20013432 0.0044010398 0.019272615)
(0.20013416 -0.004401069 0.019272673)
(0.20473242 -0.013534141 0.019921356)
(0.20884422 -0.02301655 0.021105949)
(0.18945475 -0.024592685 0.02051985)
(0.21353294 0.028597876 0.025375445)
(0.22894969 0.024681055 0.025383063)
(0.22360417 0.014314114 0.023872356)
(0.21888811 0.0046488408 0.023114659)
(0.21888795 -0.0046488803 0.023114733)
(0.22360371 -0.014314083 0.023872587)
(0.22894905 -0.02468099 0.025383438)
(0.21353207 -0.028597999 0.025375947)
(0.23175131 0.031614999 0.029382348)
(0.24329943 0.025457693 0.028706876)
(0.23691951 0.014654808 0.026930546)
(0.2322555 0.0047620469 0.02611714)
(0.23225534 -0.0047620907 0.026117229)
(0.23691907 -0.014654779 0.026930824)
(0.24329881 -0.025457623 0.028707336)
(0.23175046 -0.031615128 0.029382963)
(0.014241828 0.00058580866 7.7232919e-05)
(0.02095495 0.0015809142 0.00010643145)
(0.022469341 0.0012374536 9.9133189e-05)
(0.022250959 0.00043630676 8.878847e-05)
(0.022250931 -0.00043611501 8.8788768e-05)
(0.022469238 -0.0012372954 9.9133901e-05)
(0.020954816 -0.0015808582 0.0001064348)
(0.014241634 -0.00058580315 7.7234353e-05)
(0.043925392 0.0022497015 0.00077242876)
(0.06053851 0.0048442266 0.0010528195)
(0.063954085 0.0036362751 0.001009152)
(0.063251392 0.0012726831 0.00091947832)
(0.063251273 -0.00127235 0.00091947992)
(0.06395371 -0.0036359902 0.001009166)
(0.060538013 -0.0048441465 0.001052849)
(0.043924687 -0.0022497518 0.00077247014)
(0.074159715 0.004570009 0.0022407468)
(0.09747612 0.0081437176 0.0028872566)
(0.10176304 0.0058927215 0.0027576493)
(0.1005209 0.002046047 0.0025366516)
(0.1005207 -0.0020455583 0.0025366558)
(0.10176246 -0.0058922768 0.0027576855)
(0.097475368 -0.0081435395 0.0028873305)
(0.074158633 -0.0045700912 0.0022408632)
(0.10433741 0.0074624429 0.0044703226)
(0.13151794 0.011347921 0.0054860015)
(0.13580423 0.007934153 0.0052115755)
(0.13399445 0.0027332788 0.0048251471)
(0.1339942 -0.0027326449 0.004825155)
(0.13580351 -0.0079335487 0.0052116409)
(0.13151701 -0.011347608 0.0054861336)
(0.10433607 -0.0074625261 0.0044705417)
(0.13367476 0.010756223 0.0073398203)
(0.1622724 0.014298592 0.0086199657)
(0.16588578 0.0096910274 0.008138778)
(0.16352527 0.0033150106 0.007573655)
(0.16352498 -0.0033142814 0.0075736687)
(0.16588495 -0.0096903063 0.008138878)
(0.16227135 -0.014298153 0.0086201664)
(0.13367325 -0.010756288 0.0073401606)
(0.16125596 0.014233023 0.010660077)
(0.18932642 0.016840566 0.012020979)
(0.19180506 0.011111107 0.011277398)
(0.18895495 0.0037785787 0.010538967)
(0.18895463 -0.0037778084 0.010538989)
(0.19180415 -0.011110322 0.011277538)
(0.18932527 -0.016840031 0.012021257)
(0.16125434 -0.014233059 0.010660549)
(0.18614205 0.017650655 0.014200807)
(0.21238803 0.018840775 0.015408504)
(0.21344305 0.012167705 0.014365299)
(0.2101973 0.0041194237 0.013477259)
(0.21019696 -0.0041186487 0.013477292)
(0.21344209 -0.012166894 0.014365484)
(0.21238681 -0.018840172 0.015408868)
(0.18614036 -0.017650656 0.014201417)
(0.20749481 0.020685868 0.017575712)
(0.23141091 0.020227591 0.018519402)
(0.23082609 0.01286378 0.017163705)
(0.22730213 0.0043414177 0.016179797)
(0.22730178 -0.0043406499 0.016179845)
(0.2308251 -0.012862956 0.017163938)
(0.23140964 -0.020226922 0.018519852)
(0.20749309 -0.020685808 0.017576447)
(0.011501092 0.00032813307 1.4010333e-05)
(0.018061623 0.0009735158 4.2550712e-05)
(0.020349308 0.0007995942 4.2570548e-05)
(0.02064414 0.00028560271 3.4138798e-05)
(0.020644159 -0.00028507111 3.4138444e-05)
(0.020349271 -0.00079920768 4.2569116e-05)
(0.018061544 -0.00097344525 4.2554215e-05)
(0.011500789 -0.00032814459 1.4012153e-05)
(0.03627479 0.0012641945 0.00042476246)
(0.053008332 0.0030224486 0.0006415728)
(0.05859546 0.0024231506 0.00061639883)
(0.059210945 0.00086951442 0.00052982271)
(0.059210916 -0.00086825142 0.00052981196)
(0.058595212 -0.0024222057 0.00061639535)
(0.053007957 -0.0030222556 0.00064158621)
(0.036273767 -0.0012643235 0.0004248072)
(0.062137739 0.0025925045 0.0012795879)
(0.08630289 0.0051678942 0.0017660068)
(0.094018624 0.0040359134 0.0016833453)
(0.094700525 0.001445593 0.001470783)
(0.094700441 -0.0014436171 0.0014707552)
(0.094018213 -0.0040343567 0.0016833374)
(0.086302346 -0.0051673976 0.0017660347)
(0.062136247 -0.0025926913 0.0012797073)
(0.088518187 0.0043007101 0.0025861804)
(0.11767396 0.0073597764 0.0033658151)
(0.12648864 0.0055903849 0.0031852368)
(0.12702004 0.0019938475 0.0028144933)
(0.12701989 -0.0019912359 0.0028144447)
(0.12648809 -0.0055882373 0.0031852234)
(0.11767332 -0.0073588699 0.0033658613)
(0.088516437 -0.0043008739 0.002586401)
(0.11481437 0.0063309543 0.0043000355)
(0.14685036 0.0095139861 0.0053348433)
(0.15588504 0.0070298273 0.0050113044)
(0.15609844 0.0024940276 0.0044687438)
(0.15609822 -0.0024909257 0.0044686749)
(0.15588434 -0.0070271888 0.0050112871)
(0.14684962 -0.0095126523 0.0053349126)
(0.11481247 -0.0063310236 0.0043003728)
(0.14039197 0.0085964385 0.0063554916)
(0.17358122 0.011525845 0.0075489397)
(0.18210495 0.0082997139 0.0070366105)
(0.18188708 0.0029284777 0.0063248381)
(0.18188679 -0.0029250408 0.0063247533)
(0.18210409 -0.0082967095 0.0070365952)
(0.17358035 -0.011524118 0.0075490404)
(0.14038998 -0.0085963567 0.0063559521)
(0.16459547 0.010970515 0.0086503196)
(0.197679 0.013285081 0.0098566892)
(0.20508024 0.0093580153 0.0091185057)
(0.20437186 0.0032847237 0.0082569062)
(0.20437149 -0.0032810788 0.0082568124)
(0.20507922 -0.0093547553 0.0091185021)
(0.19767798 -0.013283013 0.0098568335)
(0.16459344 -0.010970235 0.0086509024)
(0.1867828 0.013240264 0.010958986)
(0.21908784 0.014716116 0.012120369)
(0.2247985 0.010182827 0.011126911)
(0.22359563 0.0035572373 0.010161852)
(0.22359519 -0.0035534694 0.01016176)
(0.22479733 -0.010179381 0.011126928)
(0.21908666 -0.014713734 0.012120565)
(0.18678076 -0.013239729 0.010959678)
(0.010255611 0.00018593457 1.3849863e-05)
(0.016524498 0.00057690037 3.1619399e-05)
(0.019205719 0.0004834526 3.0816064e-05)
(0.019872863 0.00017389155 2.3296266e-05)
(0.019873075 -0.00017280684 2.3294527e-05)
(0.019206015 -0.00048276839 3.0809296e-05)
(0.016524747 -0.00057694448 3.1619475e-05)
(0.010255238 -0.00018596133 1.3844975e-05)
(0.032376035 0.0007310186 0.00025455261)
(0.048645768 0.0018365462 0.00041134939)
(0.055462885 0.0015276789 0.00039807884)
(0.057100278 0.00055856371 0.00032578049)
(0.057100703 -0.00055578503 0.00032574334)
(0.055463469 -0.0015258399 0.00039802829)
(0.048646286 -0.0018365314 0.00041128478)
(0.032374878 -0.00073131085 0.00025454209)
(0.055581707 0.0015187696 0.00076763387)
(0.079495419 0.0032029119 0.0011350462)
(0.089293998 0.0026224885 0.0010890635)
(0.091545837 0.00096309952 0.00091133941)
(0.091546377 -0.0009586804 0.0009112435)
(0.089294811 -0.0026193612 0.0010889396)
(0.079496315 -0.0032024208 0.001134872)
(0.055580214 -0.0015192535 0.00076761256)
(0.079455258 0.0025519118 0.0015637806)
(0.10891234 0.0046535038 0.0021713856)
(0.12064234 0.0037353147 0.0020657152)
(0.12318285 0.001371495 0.0017552477)
(0.12318342 -0.0013655862 0.0017550784)
(0.12064327 -0.0037308978 0.0020655004)
(0.10891359 -0.0046522476 0.002171075)
(0.07945377 -0.0025524447 0.0015637513)
(0.10355473 0.0038098369 0.0026251248)
(0.1367292 0.0061438976 0.0034584037)
(0.14944753 0.0048258036 0.0032615147)
(0.15199198 0.0017670127 0.0028062275)
(0.15199249 -0.001759876 0.0028059822)
(0.14944843 -0.0048202348 0.0032612054)
(0.13673067 -0.0061417459 0.0034579546)
(0.1035534 -0.0038102617 0.0026250921)
(0.12741543 0.0052555914 0.0039211763)
(0.16279436 0.0076133618 0.0049256363)
(0.17565753 0.0058519633 0.0046043741)
(0.17796961 0.0021337175 0.0040053306)
(0.17797001 -0.0021256416 0.0040050162)
(0.17565826 -0.0058454407 0.0046039801)
(0.16279587 -0.0076102959 0.004925068)
(0.1274143 -0.0052557562 0.0039211457)
(0.15055604 0.0068271531 0.0054010935)
(0.18700211 0.0089916273 0.0064888685)
(0.19923835 0.006776321 0.0060138737)
(0.20113575 0.002458303 0.0052853769)
(0.20113598 -0.0024495453 0.0052850077)
(0.19923878 -0.0067690412 0.0060134162)
(0.18700348 -0.0089876887 0.0064882185)
(0.1505551 -0.0068269155 0.0054010701)
(0.17249107 0.0084047866 0.0069435466)
(0.20933548 0.01022407 0.0080817059)
(0.22017865 0.0075713373 0.0074210615)
(0.22154187 0.0027317282 0.0065982954)
(0.22154192 -0.0027224906 0.0065978949)
(0.22017872 -0.0075634509 0.007420564)
(0.20933655 -0.010219299 0.008081016)
(0.17249031 -0.008403995 0.0069435403)
(0.0094246635 0.00011767725 7.0438251e-06)
(0.015474298 0.00035755718 2.0293229e-05)
(0.018398632 0.00029464313 2.0611124e-05)
(0.019335477 0.00010516629 1.500785e-05)
(0.01933618 -0.00010326252 1.5004042e-05)
(0.018399837 -0.00029366259 2.0589199e-05)
(0.015475526 -0.00035804789 2.0275498e-05)
(0.0094244733 -0.00011768398 7.0084143e-06)
(0.029848117 0.00045705008 0.00015816739)
(0.045711683 0.0011487353 0.00027404086)
(0.05329285 0.00096114307 0.00027000514)
(0.055682382 0.00035459317 0.00021498611)
(0.055683998 -0.00034963192 0.00021489008)
(0.053295762 -0.00095837318 0.00026982937)
(0.04571485 -0.0011497268 0.00027373063)
(0.029847609 -0.0004576325 0.00015793681)
(0.051380807 0.0009470672 0.00048308627)
(0.074932962 0.002023673 0.00075729823)
(0.086041578 0.0016896093 0.00073758789)
(0.089471106 0.00063131216 0.00060181777)
(0.089473318 -0.00062343274 0.00060156853)
(0.086045816 -0.0016847598 0.00073716289)
(0.074937973 -0.0020243018 0.00075650881)
(0.051380665 -0.00094823628 0.00048253015)
(0.073667552 0.0015948734 0.00099113108)
(0.10301838 0.0029759601 0.0014512007)
(0.11661606 0.0024611082 0.001398951)
(0.12070012 0.00092429369 0.0011611768)
(0.12070264 -0.00091376123 0.0011607359)
(0.11662118 -0.0024541004 0.0013982241)
(0.10302493 -0.0029755707 0.0014498235)
(0.073668229 -0.0015964573 0.00099016879)
(0.096340542 0.0023937346 0.001673605)
(0.12984928 0.0039845996 0.0023170041)
(0.14498418 0.0032505226 0.0022115797)
(0.14937208 0.0012216308 0.0018622283)
(0.14937467 -0.0012088624 0.0018615871)
(0.14498969 -0.0032415002 0.0022105419)
(0.12985687 -0.003982803 0.0023150254)
(0.096342172 -0.0023954758 0.0016722081)
(0.11901875 0.0033279468 0.0025149801)
(0.15532297 0.0050170259 0.0033122971)
(0.17111704 0.004029864 0.0031313351)
(0.17549948 0.001511287 0.0026708346)
(0.17550193 -0.0014967388 0.0026700071)
(0.17112251 -0.0040190819 0.003130013)
(0.15533105 -0.0050136391 0.0033097774)
(0.11902127 -0.0033295466 0.0025131639)
(0.14130892 0.0043674143 0.0034887254)
(0.17937439 0.0060324023 0.0043885681)
(0.19499353 0.0047716691 0.0041109137)
(0.19910962 0.0017822152 0.0035495287)
(0.19911179 -0.0017663044 0.003548546)
(0.19499858 -0.0047594032 0.0041093614)
(0.17938246 -0.006027379 0.004385626)
(0.14131217 -0.0043685551 0.0034865374)
(0.16280824 0.0054452773 0.0045277263)
(0.20200754 0.0069967786 0.005513226)
(0.21659913 0.0054522616 0.0051112769)
(0.22024836 0.0020255374 0.0044741942)
(0.22025014 -0.0020086102 0.0044731098)
(0.21660352 -0.0054387393 0.0051095576)
(0.20201516 -0.0069901217 0.0055100105)
(0.16281205 -0.0054456086 0.0045252649)
(0.0089094643 7.7980327e-05 4.4821596e-06)
(0.014783801 0.00022982155 1.3717286e-05)
(0.017838109 0.00018491657 1.4427253e-05)
(0.018953132 6.5554841e-05 1.0454061e-05)
(0.01895502 -6.2247046e-05 1.0439613e-05)
(0.017841427 -0.00018351335 1.436911e-05)
(0.01478739 -0.00023124689 1.3653086e-05)
(0.0089100905 -7.7852972e-05 4.3645422e-06)
(0.028254844 0.00029836634 0.00010163348)
(0.043757491 0.00074176299 0.00018654103)
(0.051771886 0.00061788199 0.00018934122)
(0.054671856 0.00022978115 0.00015056341)
(0.054676352 -0.00022122104 0.00015032527)
(0.051780213 -0.00061383019 0.00018884856)
(0.043766995 -0.00074498252 0.0001855789)
(0.028256918 -0.0002993912 0.00010075591)
(0.048703603 0.000615127 0.0003132168)
(0.07186357 0.0013148272 0.00051778777)
(0.083743994 0.0011058341 0.00051816656)
(0.087990812 0.00041946664 0.00042208957)
(0.08799705 -0.00040610975 0.00042148454)
(0.083756145 -0.0010986801 0.00051697773)
(0.071878217 -0.0013182351 0.00051537203)
(0.04870802 -0.00061759652 0.00031108425)
(0.069942062 0.0010358854 0.00064731912)
(0.099010731 0.0019491542 0.00099612775)
(0.11374492 0.0016383384 0.00098470083)
(0.11892499 0.0006274429 0.00081582522)
(0.11893222 -0.00060986979 0.00081476738)
(0.11375965 -0.0016279537 0.00098267626)
(0.099029414 -0.0019514933 0.00099193799)
(0.069949239 -0.0010396633 0.00064358521)
(0.091648698 0.0015599745 0.0011005644)
(0.12511058 0.0026354055 0.0015970458)
(0.14176047 0.0022005672 0.0015607216)
(0.14749003 0.00084580323 0.0013117495)
(0.14749761 -0.00082475674 0.0013102215)
(0.14177657 -0.0021871496 0.0015578434)
(0.12513196 -0.0026358581 0.0015910408)
(0.091658517 -0.0015646985 0.0010950989)
(0.11349236 0.0021815151 0.0016653803)
(0.1500893 0.0033564108 0.0022941393)
(0.16777582 0.0027750436 0.0022177468)
(0.17370638 0.001066229 0.0018885177)
(0.17371381 -0.0010424631 0.001886553)
(0.1677922 -0.0027589546 0.0022140906)
(0.15011203 -0.0033545128 0.0022864908)
(0.11350438 -0.0021866841 0.0016582367)
(0.13513092 0.0028859742 0.0023276295)
(0.17390528 0.0040887288 0.0030579011)
(0.19177744 0.0033433712 0.0029259439)
(0.19760287 0.001280596 0.0025233344)
(0.19760977 -0.001254778 0.0025210038)
(0.19179324 -0.0033250042 0.0029216527)
(0.17392817 -0.0040842697 0.0030489401)
(0.1351446 -0.0028910026 0.0023189994)
(0.1562102 0.0036343541 0.0030481242)
(0.19657579 0.0048119368 0.0038707251)
(0.21375019 0.0038880324 0.0036602499)
(0.2192194 0.0014817137 0.0032013551)
(0.21922552 -0.0014543921 0.0031987771)
(0.21376476 -0.0038677099 0.0036554998)
(0.19659786 -0.0048048377 0.0038608933)
(0.15622496 -0.0036385691 0.0030383946)
(0.0085655524 5.4919694e-05 3.0455008e-06)
(0.014308333 0.00015643765 9.6001931e-06)
(0.017431846 0.00012485302 1.0623451e-05)
(0.018662415 4.521752e-05 7.9578989e-06)
(0.01866671 -3.8996975e-05 7.9355878e-06)
(0.017439886 -0.00012266445 1.046867e-05)
(0.014317951 -0.00015958504 9.4050011e-06)
(0.0085697941 -5.4540361e-05 2.7156781e-06)
(0.027189679 0.00020484602 6.924095e-05)
(0.042405388 0.00050328367 0.00013200676)
(0.050663606 0.0004196257 0.00013893898)
(0.053901403 0.00015965215 0.00011305995)
(0.053911789 -0.00014378499 0.00011244993)
(0.05068395 -0.00041323004 0.00013762577)
(0.042430524 -0.00051059253 0.00012931038)
(0.027202028 -0.0002069889 6.6583038e-05)
(0.046909457 0.00041836615 0.00021401691)
(0.069728513 0.00089270777 0.0003675382)
(0.082059308 0.00075611674 0.00038041887)
(0.086856651 0.00029370346 0.00031607824)
(0.086871123 -0.00026962916 0.00031451083)
(0.082088805 -0.00074497152 0.00037726733)
(0.069766147 -0.00090137583 0.00036096877)
(0.046930171 -0.00042390378 0.00020756345)
(0.067436196 0.00070231954 0.00044362861)
(0.096203687 0.0013273361 0.00070912501)
(0.11162178 0.0011291414 0.00072377792)
(0.1175538 0.00044304377 0.00061027197)
(0.11757063 -0.00041225921 0.00060753899)
(0.11165734 -0.0011132197 0.00071843861)
(0.096250448 -0.0013351714 0.00069793592)
(0.067464604 -0.00071126803 0.00043243949)
(0.088476328 0.0010583774 0.00075683075)
(0.12176127 0.0018035105 0.001140595)
(0.13934886 0.00153043 0.00114932)
(0.1460172 0.00060275476 0.00098135364)
(0.14603495 -0.00056684289 0.00097743875)
(0.13938761 -0.0015101702 0.0011417732)
(0.12181369 -0.001809039 0.0011247374)
(0.088510946 -0.0010702449 0.00074060296)
(0.10972914 0.0014851371 0.0011499137)
(0.1463459 0.002312245 0.0016447737)
(0.16523586 0.0019496071 0.0016375691)
(0.17227305 0.00076748831 0.0014146603)
(0.17229059 -0.0007279067 0.0014096801)
(0.16527538 -0.0019256558 0.0016280335)
(0.14640078 -0.0023145776 0.0016247136)
(0.10976813 -0.0014990771 0.0011288538)
(0.1308844 0.0019757905 0.0016151758)
(0.16993188 0.0028399633 0.0022027514)
(0.18927622 0.0023750424 0.0021683669)
(0.19635209 0.00093175989 0.0018948415)
(0.19636861 -0.00088972231 0.0018889989)
(0.1893146 -0.0023480553 0.0021572216)
(0.16998656 -0.0028386489 0.002179336)
(0.13092592 -0.0019907388 0.0015898828)
(0.15161942 0.0025067648 0.0021289512)
(0.19254742 0.0033744517 0.0028046422)
(0.21145771 0.0027947914 0.0027243036)
(0.21829193 0.0010903686 0.0024111592)
(0.21830689 -0.0010468297 0.0024047645)
(0.21149356 -0.0027652779 0.0027120219)
(0.1925998 -0.0033692901 0.0027790026)
(0.15166183 -0.0025214922 0.002100592)
(0.0083194862 4.061894e-05 2.610727e-06)
(0.013963402 0.00011265376 7.1622401e-06)
(0.017122982 9.2606186e-05 8.1873882e-06)
(0.018428777 3.6766666e-05 6.3764271e-06)
(0.018439683 -2.4245983e-05 6.2100487e-06)
(0.017141649 -8.7150817e-05 7.8129732e-06)
(0.013989088 -0.00011610284 6.5742458e-06)
(0.0083352565 -3.9670126e-05 1.6750171e-06)
(0.026429856 0.00014522115 5.3046716e-05)
(0.041423333 0.00035981627 9.8888648e-05)
(0.049818805 0.00030693894 0.00010662061)
(0.053280614 0.00012490018 8.9641549e-05)
(0.053306765 -9.3292156e-05 8.7897273e-05)
(0.04986665 -0.0002919565 0.00010298347)
(0.041485666 -0.00036676467 9.1045732e-05)
(0.02647203 -0.00014831012 4.5319435e-05)
(0.045632101 0.00029338843 0.00016137745)
(0.068175149 0.00063638573 0.00027493797)
(0.080770605 0.00054984533 0.0002916879)
(0.08593841 0.00022564162 0.00024952072)
(0.085974303 -0.00017897669 0.00024536146)
(0.080839076 -0.00052615581 0.00028316255)
(0.068265367 -0.00064465473 0.00025721759)
(0.045698719 -0.00030289147 0.00014283791)
(0.065653934 0.00049099148 0.00033122058)
(0.094155782 0.0009452637 0.00053003668)
(0.10998919 0.00081903055 0.00055487008)
(0.11643466 0.00033661831 0.00048042116)
(0.11647567 -0.00027874136 0.00047350249)
(0.1100706 -0.00078779687 0.00054084842)
(0.094265154 -0.00095280899 0.00050114445)
(0.065740591 -0.00050726826 0.00029924824)
(0.08621962 0.00074024989 0.00056108284)
(0.11930748 0.0012851937 0.00085236954)
(0.13748051 0.0011101002 0.00088142459)
(0.14479973 0.00045503148 0.00077107763)
(0.14484223 -0.00038955579 0.00076151732)
(0.13756825 -0.0010728188 0.00086209078)
(0.11942774 -0.0012904682 0.00081253633)
(0.086320555 -0.00076279478 0.00051511407)
(0.10704776 0.0010415649 0.00084838401)
(0.14358694 0.0016513375 0.0012297602)
(0.16324736 0.0014171674 0.0012570293)
(0.17106433 0.00057776659 0.0011103318)
(0.17110567 -0.00050777032 0.0010985333)
(0.16333609 -0.0013753753 0.0012330691)
(0.14371084 -0.001653311 0.0011802809)
(0.10715704 -0.0010692216 0.00078935535)
(0.12784866 0.0013918272 0.0011883323)
(0.16697956 0.0020356091 0.0016491529)
(0.18728922 0.0017332442 0.0016670484)
(0.1952617 0.00070148293 0.0014867363)
(0.19530009 -0.00062937964 0.001473256)
(0.18737487 -0.0016882858 0.0016394684)
(0.16710126 -0.0020337366 0.0015921193)
(0.12796091 -0.0014229908 0.0011181943)
(0.14832067 0.0017760118 0.0015655021)
(0.18952224 0.0024307484 0.0021048631)
(0.20959801 0.0020506842 0.002098797)
(0.21742942 0.00082280337 0.0018917423)
(0.21746379 -0.00075038047 0.0018772853)
(0.20967769 -0.0020035175 0.0020688036)
(0.18963736 -0.0024247473 0.0020430241)
(0.14843137 -0.0018089372 0.0014878212)
(0.0081112756 3.0657468e-05 3.2006104e-06)
(0.013690065 8.8471784e-05 6.1903324e-06)
(0.016875455 7.6713233e-05 6.7079553e-06)
(0.01823324 3.8954058e-05 5.297869e-06)
(0.018255359 -1.0199606e-05 4.8584109e-06)
(0.016919583 -5.5427754e-05 6.2609344e-06)
(0.013771849 -9.3413341e-05 4.5987551e-06)
(0.0081689703 -4.615495e-05 -1.5560136e-06)
(0.025801105 9.9563443e-05 5.100395e-05)
(0.040653051 0.00027761899 8.1369884e-05)
(0.049143024 0.00024595976 8.5419538e-05)
(0.052760907 0.00012054808 7.2748714e-05)
(0.052814195 -4.7713488e-05 6.5161028e-05)
(0.049247864 -0.00017827345 7.1276292e-05)
(0.040811157 -0.00018104335 6.4524041e-05)
(0.025955242 -4.2393258e-05 2.9616995e-05)
(0.044598597 0.00020170006 0.00014794048)
(0.066965492 0.00048507385 0.00022261127)
(0.07974017 0.00043206658 0.00023260216)
(0.085167657 0.00020581104 0.00020140575)
(0.085240198 -0.00010232334 0.00018424678)
(0.079885833 -0.00035728333 0.00020026952)
(0.067178978 -0.00041348228 0.00018087538)
(0.044825037 -0.00017656949 0.00010669406)
(0.064239048 0.00034095215 0.00029229209)
(0.09256951 0.00071337222 0.00042452129)
(0.10868254 0.00063425951 0.00044122706)
(0.11549014 0.00029401582 0.00038666737)
(0.11557195 -0.0001704717 0.00036007455)
(0.10885235 -0.0005536276 0.0003942011)
(0.092818602 -0.00065911218 0.00035782909)
(0.064514591 -0.00034045795 0.00021970914)
(0.084455608 0.00051847571 0.00047995379)
(0.11741367 0.00096254222 0.00067710456)
(0.13598128 0.00085045786 0.00069952393)
(0.14376273 0.00038428041 0.00061943728)
(0.14384617 -0.00024962014 0.00058539099)
(0.13616154 -0.00076583955 0.00064098469)
(0.1176803 -0.00091983949 0.00058687818)
(0.084758906 -0.00053752475 0.00037325822)
(0.10497702 0.00073488156 0.00070752624)
(0.14146157 0.0012302287 0.00097064889)
(0.16164426 0.0010776678 0.00099624281)
(0.17001955 0.00047556044 0.00089080209)
(0.17009934 -0.00033682825 0.00085183959)
(0.1618243 -0.00099101781 0.00092891446)
(0.14173049 -0.0011947449 0.00085981408)
(0.1052899 -0.00076957778 0.00056889396)
(0.12552497 0.00098849205 0.00097095384)
(0.16470551 0.0015117572 0.0012951783)
(0.18567553 0.00131211 0.001320057)
(0.19429616 0.00056652922 0.00119166)
(0.19436903 -0.00042889135 0.0011502008)
(0.18584749 -0.0012251244 0.0012465901)
(0.16496478 -0.0014805632 0.0011682618)
(0.12583313 -0.0010351301 0.00080520808)
(0.14581029 0.0012685135 0.0012578973)
(0.18718836 0.0018032978 0.0016470501)
(0.20807065 0.0015493733 0.0016614093)
(0.21663108 0.000655596 0.0015150181)
(0.21669534 -0.00052262002 0.001473329)
(0.20822919 -0.0014631869 0.0015845429)
(0.18742927 -0.001774236 0.001509949)
(0.14610327 -0.0013240959 0.0010739244)
(0.0078652436 -8.7814316e-07 -5.0885796e-06)
(0.013446541 0.00010031084 5.544757e-06)
(0.016669026 7.5745768e-05 5.6746684e-06)
(0.018073396 4.969167e-05 3.8776285e-06)
(0.018159463 1.9261377e-05 -1.4217971e-06)
(0.016833598 -7.4739848e-06 -4.2334877e-06)
(0.013603821 -7.2245856e-05 8.0640576e-06)
(0.0080545197 -4.7269414e-05 -3.8652028e-06)
(0.025104068 6.6478977e-05 2.1602259e-05)
(0.039985945 0.00029074365 7.002228e-05)
(0.048582757 0.00022716165 7.1039305e-05)
(0.052336514 0.0001405259 5.7854774e-05)
(0.05252099 2.8044819e-05 2.3042692e-05)
(0.048814717 -3.2333377e-05 4.0188747e-06)
(0.040302158 -4.6517247e-05 6.0609391e-05)
(0.025592105 1.6602789e-05 1.7595361e-05)
(0.043523903 0.00017999696 0.00014562956)
(0.065937713 0.00046854575 0.00019176)
(0.078888122 0.000381808 0.00019229879)
(0.084534345 0.00022301464 0.00015996013)
(0.084754842 3.9090647e-06 9.5107693e-05)
(0.079163846 -0.00016539519 8.7559677e-05)
(0.066372325 -0.00022704085 0.00014285843)
(0.044206413 -8.5295502e-05 7.9689727e-05)
(0.062841809 0.00030749777 0.00030103332)
(0.091241229 0.00064588633 0.00036197143)
(0.10760307 0.00054071888 0.0003630921)
(0.11470665 0.00029820475 0.00030779693)
(0.11492632 -4.1624552e-05 0.00022073947)
(0.10790635 -0.00031640087 0.00023222843)
(0.09174769 -0.00041428356 0.0002652505)
(0.063642509 -0.00020958752 0.00016269121)