/*--------------------------------*- C++ -*----------------------------------*\
  =========                 |
  \\      /  F ield         | OpenFOAM: The Open Source CFD Toolbox
   \\    /   O peration     | Website:  https://openfoam.org
    \\  /    A nd           | Version:  13
     \\/     M anipulation  |
\*---------------------------------------------------------------------------*/
FoamFile
{
    format      ascii;
    class       volVectorField;
    location    "1";
    object      D;
}
// * * * * * * * * * * * * * * * * * * * * * * * * * * * * * * * * * * * * * //

dimensions      [0 1 0 0 0 0 0];

internalField   nonuniform List<vector> 
17280
(
(0 -3.07252e-08 -5.32666e-08)
(0 -2.48564e-08 -6.3146e-08)
(0 -8.45549e-09 -7.14351e-08)
(0 9.92702e-09 -7.18148e-08)
(0 2.16045e-08 -6.46576e-08)
(0 3.50139e-08 -5.00854e-08)
(0 -3.07422e-08 -5.36855e-08)
(0 -2.47301e-08 -6.3613e-08)
(0 -8.42185e-09 -7.18633e-08)
(0 9.82689e-09 -7.22421e-08)
(0 2.15023e-08 -6.5088e-08)
(0 3.49101e-08 -5.05357e-08)
(0 -3.05176e-08 -5.44813e-08)
(0 -2.46216e-08 -6.43011e-08)
(0 -8.39268e-09 -7.25179e-08)
(0 9.61029e-09 -7.28943e-08)
(0 2.13113e-08 -6.57453e-08)
(0 3.47653e-08 -5.11971e-08)
(0 -3.05425e-08 -5.58895e-08)
(0 -2.44143e-08 -6.58099e-08)
(0 -8.3413e-09 -7.39623e-08)
(0 9.42194e-09 -7.43365e-08)
(0 2.11261e-08 -6.71912e-08)
(0 3.46256e-08 -5.26502e-08)
(0 -3.06933e-08 -5.7993e-08)
(0 -2.41547e-08 -6.81083e-08)
(0 -8.27438e-09 -7.6183e-08)
(0 9.24599e-09 -7.65554e-08)
(0 2.09363e-08 -6.94191e-08)
(0 3.44699e-08 -5.48697e-08)
(0 -3.09156e-08 -6.09117e-08)
(0 -2.38531e-08 -7.12682e-08)
(0 -8.19241e-09 -7.92551e-08)
(0 9.08388e-09 -7.96258e-08)
(0 2.07373e-08 -7.25066e-08)
(0 3.42641e-08 -5.79728e-08)
(0 -8.58757e-08 -1.47845e-07)
(0 -5.1972e-08 -1.73972e-07)
(0 -1.76433e-08 -1.92592e-07)
(0 1.7814e-08 -1.93379e-07)
(0 4.03283e-08 -1.77485e-07)
(0 7.00799e-08 -1.47247e-07)
(0 -8.58488e-08 -1.48318e-07)
(0 -5.21133e-08 -1.74586e-07)
(0 -1.77142e-08 -1.93226e-07)
(0 1.77643e-08 -1.94024e-07)
(0 4.04436e-08 -1.7809e-07)
(0 7.03124e-08 -1.4777e-07)
(0 -8.56804e-08 -1.49339e-07)
(0 -5.2447e-08 -1.75781e-07)
(0 -1.78353e-08 -1.94491e-07)
(0 1.76674e-08 -1.95303e-07)
(0 4.06187e-08 -1.793e-07)
(0 7.07172e-08 -1.48829e-07)
(0 -8.56574e-08 -1.50894e-07)
(0 -5.27078e-08 -1.77616e-07)
(0 -1.79624e-08 -1.96367e-07)
(0 1.75698e-08 -1.972e-07)
(0 4.08309e-08 -1.81119e-07)
(0 7.11607e-08 -1.50468e-07)
(0 -8.57163e-08 -1.5307e-07)
(0 -5.29239e-08 -1.80116e-07)
(0 -1.80912e-08 -1.98886e-07)
(0 1.74771e-08 -1.9974e-07)
(0 4.10631e-08 -1.83583e-07)
(0 7.16179e-08 -1.52748e-07)
(0 -8.58158e-08 -1.55954e-07)
(0 -5.30918e-08 -1.83318e-07)
(0 -1.82183e-08 -2.02089e-07)
(0 1.73944e-08 -2.02964e-07)
(0 4.13035e-08 -1.86735e-07)
(0 7.20376e-08 -1.5575e-07)
(0 -1.35285e-07 -2.24803e-07)
(0 -8.92467e-08 -2.69509e-07)
(0 -3.6509e-08 -3.00111e-07)
(0 2.70057e-08 -3.0212e-07)
(0 6.75984e-08 -2.7721e-07)
(0 1.16386e-07 -2.30826e-07)
(0 -1.35187e-07 -2.25276e-07)
(0 -8.9232e-08 -2.69942e-07)
(0 -3.64308e-08 -3.00524e-07)
(0 2.68783e-08 -3.02554e-07)
(0 6.7628e-08 -2.77618e-07)
(0 1.1636e-07 -2.31215e-07)
(0 -1.34923e-07 -2.26323e-07)
(0 -8.93318e-08 -2.70814e-07)
(0 -3.6283e-08 -3.01412e-07)
(0 2.66575e-08 -3.03496e-07)
(0 6.76948e-08 -2.78511e-07)
(0 1.16349e-07 -2.32059e-07)
(0 -1.34774e-07 -2.27875e-07)
(0 -8.93233e-08 -2.72324e-07)
(0 -3.61486e-08 -3.02891e-07)
(0 2.64254e-08 -3.05013e-07)
(0 6.77541e-08 -2.79978e-07)
(0 1.1635e-07 -2.33459e-07)
(0 -1.34679e-07 -2.30023e-07)
(0 -8.92451e-08 -2.74501e-07)
(0 -3.60175e-08 -3.05006e-07)
(0 2.61886e-08 -3.07155e-07)
(0 6.78005e-08 -2.82074e-07)
(0 1.16337e-07 -2.35491e-07)
(0 -1.34597e-07 -2.32853e-07)
(0 -8.90963e-08 -2.77384e-07)
(0 -3.58901e-08 -3.078e-07)
(0 2.59561e-08 -3.09962e-07)
(0 6.78205e-08 -2.84845e-07)
(0 1.16262e-07 -2.38238e-07)
(0 -1.64364e-07 -2.78877e-07)
(0 -1.07208e-07 -3.27574e-07)
(0 -4.56445e-08 -3.63349e-07)
(0 2.82378e-08 -3.66485e-07)
(0 7.70941e-08 -3.37106e-07)
(0 1.33184e-07 -2.83977e-07)
(0 -1.64332e-07 -2.79414e-07)
(0 -1.07342e-07 -3.28209e-07)
(0 -4.56525e-08 -3.63985e-07)
(0 2.81478e-08 -3.67132e-07)
(0 7.72253e-08 -3.37709e-07)
(0 1.33343e-07 -2.84512e-07)
(0 -1.64201e-07 -2.8057e-07)
(0 -1.07674e-07 -3.2941e-07)
(0 -4.56584e-08 -3.65237e-07)
(0 2.79781e-08 -3.68419e-07)
(0 7.74418e-08 -3.38917e-07)
(0 1.3359e-07 -2.8559e-07)
(0 -1.64181e-07 -2.82246e-07)
(0 -1.07928e-07 -3.31282e-07)
(0 -4.56704e-08 -3.67117e-07)
(0 2.7807e-08 -3.70319e-07)
(0 7.76865e-08 -3.40733e-07)
(0 1.33902e-07 -2.87248e-07)
(0 -1.64221e-07 -2.84526e-07)
(0 -1.08134e-07 -3.3383e-07)
(0 -4.5687e-08 -3.69648e-07)
(0 2.76408e-08 -3.72858e-07)
(0 7.79452e-08 -3.43191e-07)
(0 1.34236e-07 -2.89548e-07)
(0 -1.64284e-07 -2.87495e-07)
(0 -1.08285e-07 -3.37094e-07)
(0 -4.57092e-08 -3.72872e-07)
(0 2.74888e-08 -3.76078e-07)
(0 7.8202e-08 -3.46338e-07)
(0 1.34541e-07 -2.92577e-07)
(0 -1.92249e-07 -3.25742e-07)
(0 -1.30354e-07 -3.85496e-07)
(0 -6.07917e-08 -4.26975e-07)
(0 3.09338e-08 -4.30508e-07)
(0 8.96879e-08 -3.97084e-07)
(0 1.55243e-07 -3.35886e-07)
(0 -1.92197e-07 -3.26292e-07)
(0 -1.30424e-07 -3.85988e-07)
(0 -6.06967e-08 -4.27455e-07)
(0 3.07753e-08 -4.31e-07)
(0 8.97807e-08 -3.97527e-07)
(0 1.55248e-07 -3.36286e-07)
(0 -1.92022e-07 -3.27457e-07)
(0 -1.30636e-07 -3.86978e-07)
(0 -6.05013e-08 -4.28472e-07)
(0 3.04848e-08 -4.32041e-07)
(0 8.99363e-08 -3.9848e-07)
(0 1.55298e-07 -3.3716e-07)
(0 -1.91965e-07 -3.29151e-07)
(0 -1.30774e-07 -3.886e-07)
(0 -6.03311e-08 -4.30076e-07)
(0 3.01946e-08 -4.33665e-07)
(0 9.01075e-08 -4.00009e-07)
(0 1.55351e-07 -3.38581e-07)
(0 -1.91961e-07 -3.31448e-07)
(0 -1.30856e-07 -3.90887e-07)
(0 -6.01685e-08 -4.32316e-07)
(0 2.99114e-08 -4.35917e-07)
(0 9.02796e-08 -4.0217e-07)
(0 1.55397e-07 -3.40639e-07)
(0 -1.91973e-07 -3.34431e-07)
(0 -1.3088e-07 -3.93884e-07)
(0 -6.00183e-08 -4.35238e-07)
(0 2.96475e-08 -4.38843e-07)
(0 9.04372e-08 -4.05015e-07)
(0 1.55396e-07 -3.43427e-07)
(0 -2.13639e-07 -3.62239e-07)
(0 -1.47323e-07 -4.23098e-07)
(0 -7.13418e-08 -4.65881e-07)
(0 2.86089e-08 -4.69297e-07)
(0 9.44412e-08 -4.32984e-07)
(0 1.62597e-07 -3.68993e-07)
(0 -2.13618e-07 -3.62815e-07)
(0 -1.47395e-07 -4.23725e-07)
(0 -7.12487e-08 -4.66513e-07)
(0 2.8475e-08 -4.69918e-07)
(0 9.45544e-08 -4.33556e-07)
(0 1.62708e-07 -3.69499e-07)
(0 -2.13531e-07 -3.64028e-07)
(0 -1.47714e-07 -4.24905e-07)
(0 -7.1169e-08 -4.67743e-07)
(0 2.82005e-08 -4.71154e-07)
(0 9.47416e-08 -4.34711e-07)
(0 1.62888e-07 -3.70533e-07)
(0 -2.13529e-07 -3.65774e-07)
(0 -1.47867e-07 -4.26764e-07)
(0 -7.10066e-08 -4.69617e-07)
(0 2.79477e-08 -4.73009e-07)
(0 9.49532e-08 -4.36471e-07)
(0 1.63118e-07 -3.7214e-07)
(0 -2.13554e-07 -3.68129e-07)
(0 -1.4793e-07 -4.29304e-07)
(0 -7.08102e-08 -4.72151e-07)
(0 2.77199e-08 -4.7551e-07)
(0 9.51784e-08 -4.38876e-07)
(0 1.63369e-07 -3.74389e-07)
(0 -2.13574e-07 -3.71177e-07)
(0 -1.47902e-07 -4.32571e-07)
(0 -7.05871e-08 -4.75391e-07)
(0 2.75297e-08 -4.78702e-07)
(0 9.54035e-08 -4.41978e-07)
(0 1.63595e-07 -3.77372e-07)
(0 -2.33941e-07 -3.96143e-07)
(0 -1.55044e-07 -4.66998e-07)
(0 -7.37451e-08 -5.11385e-07)
(0 2.87448e-08 -5.10406e-07)
(0 1.00321e-07 -4.70344e-07)
(0 1.73442e-07 -4.0067e-07)
(0 -2.33834e-07 -3.96718e-07)
(0 -1.55155e-07 -4.67498e-07)
(0 -7.36327e-08 -5.11901e-07)
(0 2.85893e-08 -5.10939e-07)
(0 1.00421e-07 -4.7081e-07)
(0 1.73495e-07 -4.01098e-07)
(0 -2.33649e-07 -3.97879e-07)
(0 -1.55261e-07 -4.68553e-07)
(0 -7.32337e-08 -5.13014e-07)
(0 2.8241e-08 -5.12038e-07)
(0 1.00572e-07 -4.71801e-07)
(0 1.7359e-07 -4.02015e-07)
(0 -2.33501e-07 -3.99612e-07)
(0 -1.55449e-07 -4.70189e-07)
(0 -7.30113e-08 -5.14683e-07)
(0 2.7951e-08 -5.13736e-07)
(0 1.00755e-07 -4.73373e-07)
(0 1.73721e-07 -4.03488e-07)
(0 -2.3337e-07 -4.01968e-07)
(0 -1.55673e-07 -4.72455e-07)
(0 -7.28854e-08 -5.16964e-07)
(0 2.77021e-08 -5.1607e-07)
(0 1.00956e-07 -4.7558e-07)
(0 1.73866e-07 -4.05601e-07)
(0 -2.33233e-07 -4.05028e-07)
(0 -1.55915e-07 -4.75404e-07)
(0 -7.28554e-08 -5.19907e-07)
(0 2.75023e-08 -5.19087e-07)
(0 1.01159e-07 -4.78478e-07)
(0 1.73986e-07 -4.08448e-07)
(0 -2.5123e-07 -4.23835e-07)
(0 -1.68092e-07 -4.96746e-07)
(0 -7.97892e-08 -5.40885e-07)
(0 2.66303e-08 -5.36906e-07)
(0 1.04745e-07 -4.92133e-07)
(0 1.81411e-07 -4.19337e-07)
(0 -2.51086e-07 -4.24394e-07)
(0 -1.68154e-07 -4.97263e-07)
(0 -7.96697e-08 -5.41427e-07)
(0 2.65195e-08 -5.37507e-07)
(0 1.04856e-07 -4.92691e-07)
(0 1.81501e-07 -4.19856e-07)
(0 -2.50911e-07 -4.25568e-07)
(0 -1.68343e-07 -4.98392e-07)
(0 -7.94001e-08 -5.42617e-07)
(0 2.62183e-08 -5.38712e-07)
(0 1.05035e-07 -4.9382e-07)
(0 1.81684e-07 -4.20902e-07)
(0 -2.50697e-07 -4.27276e-07)
(0 -1.68464e-07 -5.0006e-07)
(0 -7.91753e-08 -5.44335e-07)
(0 2.60004e-08 -5.4053e-07)
(0 1.05241e-07 -4.95556e-07)
(0 1.81882e-07 -4.22532e-07)
(0 -2.50456e-07 -4.29588e-07)
(0 -1.6855e-07 -5.02336e-07)
(0 -7.89894e-08 -5.46656e-07)
(0 2.58428e-08 -5.42989e-07)
(0 1.05461e-07 -4.9794e-07)
(0 1.82078e-07 -4.24813e-07)
(0 -2.50169e-07 -4.32587e-07)
(0 -1.68591e-07 -5.05276e-07)
(0 -7.88449e-08 -5.49631e-07)
(0 2.57521e-08 -5.46136e-07)
(0 1.05685e-07 -5.01026e-07)
(0 1.82234e-07 -4.27835e-07)
(0 -2.58576e-07 -4.41715e-07)
(0 -1.70054e-07 -5.15883e-07)
(0 -7.78699e-08 -5.60439e-07)
(0 3.0136e-08 -5.6336e-07)
(0 1.11004e-07 -5.15992e-07)
(0 1.90753e-07 -4.39042e-07)
(0 -2.58413e-07 -4.42274e-07)
(0 -1.70176e-07 -5.16384e-07)
(0 -7.77776e-08 -5.60993e-07)
(0 2.99692e-08 -5.63879e-07)
(0 1.11093e-07 -5.16473e-07)
(0 1.90787e-07 -4.39484e-07)
(0 -2.58087e-07 -4.43389e-07)
(0 -1.7035e-07 -5.17344e-07)
(0 -7.74197e-08 -5.62039e-07)
(0 2.955e-08 -5.64988e-07)
(0 1.11225e-07 -5.17493e-07)
(0 1.90836e-07 -4.40429e-07)
(0 -2.57828e-07 -4.45093e-07)
(0 -1.70563e-07 -5.18973e-07)
(0 -7.72366e-08 -5.63765e-07)
(0 2.92338e-08 -5.66661e-07)
(0 1.11387e-07 -5.19094e-07)
(0 1.90931e-07 -4.41928e-07)
(0 -2.57611e-07 -4.47446e-07)
(0 -1.70798e-07 -5.21292e-07)
(0 -7.71576e-08 -5.66176e-07)
(0 2.89854e-08 -5.68954e-07)
(0 1.11564e-07 -5.21328e-07)
(0 1.91042e-07 -4.44068e-07)
(0 -2.57416e-07 -4.50531e-07)
(0 -1.71042e-07 -5.24355e-07)
(0 -7.71798e-08 -5.6932e-07)
(0 2.88096e-08 -5.71923e-07)
(0 1.11745e-07 -5.24253e-07)
(0 1.91123e-07 -4.46943e-07)
(0 -2.67608e-07 -4.59902e-07)
(0 -1.76901e-07 -5.3465e-07)
(0 -7.91801e-08 -5.7916e-07)
(0 2.94109e-08 -5.8009e-07)
(0 1.1454e-07 -5.28981e-07)
(0 1.95298e-07 -4.4908e-07)
(0 -2.67412e-07 -4.60457e-07)
(0 -1.76988e-07 -5.35163e-07)
(0 -7.91241e-08 -5.79715e-07)
(0 2.92997e-08 -5.80649e-07)
(0 1.14626e-07 -5.29523e-07)
(0 1.95368e-07 -4.49579e-07)
(0 -2.67073e-07 -4.61595e-07)
(0 -1.77177e-07 -5.36206e-07)
(0 -7.88717e-08 -5.8082e-07)
(0 2.89676e-08 -5.81819e-07)
(0 1.14772e-07 -5.30629e-07)
(0 1.95486e-07 -4.50601e-07)
(0 -2.66756e-07 -4.63292e-07)
(0 -1.77339e-07 -5.37859e-07)
(0 -7.87518e-08 -5.82552e-07)
(0 2.87431e-08 -5.83563e-07)
(0 1.14933e-07 -5.32335e-07)
(0 1.95643e-07 -4.52196e-07)
(0 -2.66453e-07 -4.65617e-07)
(0 -1.77489e-07 -5.4017e-07)
(0 -7.87154e-08 -5.84944e-07)
(0 2.85915e-08 -5.85928e-07)
(0 1.15107e-07 -5.34686e-07)
(0 1.95809e-07 -4.54442e-07)
(0 -2.66152e-07 -4.68655e-07)
(0 -1.77618e-07 -5.43195e-07)
(0 -7.87588e-08 -5.88046e-07)
(0 2.85155e-08 -5.88971e-07)
(0 1.15282e-07 -5.37737e-07)
(0 1.95939e-07 -4.57433e-07)
(0 -2.7193e-07 -4.7544e-07)
(0 -1.80228e-07 -5.51345e-07)
(0 -8.27671e-08 -5.95036e-07)
(0 3.18754e-08 -5.96333e-07)
(0 1.16971e-07 -5.43449e-07)
(0 1.9879e-07 -4.60353e-07)
(0 -2.71729e-07 -4.75993e-07)
(0 -1.80335e-07 -5.51816e-07)
(0 -8.26484e-08 -5.9557e-07)
(0 3.16956e-08 -5.96851e-07)
(0 1.17063e-07 -5.43936e-07)
(0 1.98839e-07 -4.60805e-07)
(0 -2.71389e-07 -4.77138e-07)
(0 -1.8054e-07 -5.52783e-07)
(0 -8.22821e-08 -5.96629e-07)
(0 3.12367e-08 -5.97975e-07)
(0 1.17195e-07 -5.44968e-07)
(0 1.98923e-07 -4.61759e-07)
(0 -2.71069e-07 -4.78831e-07)
(0 -1.80729e-07 -5.54362e-07)
(0 -8.2057e-08 -5.98324e-07)
(0 3.0895e-08 -5.99646e-07)
(0 1.1736e-07 -5.46578e-07)
(0 1.99044e-07 -4.63273e-07)
(0 -2.70766e-07 -4.81142e-07)
(0 -1.80911e-07 -5.56602e-07)
(0 -8.19197e-08 -6.00681e-07)
(0 3.06318e-08 -6.01926e-07)
(0 1.17543e-07 -5.48822e-07)
(0 1.99173e-07 -4.65433e-07)
(0 -2.70466e-07 -4.84158e-07)
(0 -1.81076e-07 -5.59558e-07)
(0 -8.18687e-08 -6.03751e-07)
(0 3.04526e-08 -6.04872e-07)
(0 1.17734e-07 -5.51757e-07)
(0 1.9927e-07 -4.68338e-07)
(0 -2.72302e-07 -4.86814e-07)
(0 -1.8276e-07 -5.60931e-07)
(0 -8.31777e-08 -6.04079e-07)
(0 3.09254e-08 -6.04905e-07)
(0 1.19113e-07 -5.50285e-07)
(0 2.00012e-07 -4.66143e-07)
(0 -2.7214e-07 -4.87371e-07)
(0 -1.82844e-07 -5.61459e-07)
(0 -8.31204e-08 -6.04654e-07)
(0 3.08001e-08 -6.05454e-07)
(0 1.19187e-07 -5.50817e-07)
(0 2.00071e-07 -4.66625e-07)
(0 -2.71841e-07 -4.88534e-07)
(0 -1.83006e-07 -5.62514e-07)
(0 -8.2847e-08 -6.0577e-07)
(0 3.04347e-08 -6.06612e-07)
(0 1.19307e-07 -5.51905e-07)
(0 2.0017e-07 -4.6762e-07)
(0 -2.71586e-07 -4.90237e-07)
(0 -1.83158e-07 -5.64194e-07)
(0 -8.27183e-08 -6.07538e-07)
(0 3.01827e-08 -6.08338e-07)
(0 1.19444e-07 -5.53591e-07)
(0 2.00307e-07 -4.69187e-07)
(0 -2.7136e-07 -4.92554e-07)
(0 -1.83311e-07 -5.66536e-07)
(0 -8.26782e-08 -6.09976e-07)
(0 3.00075e-08 -6.10684e-07)
(0 1.19595e-07 -5.55919e-07)
(0 2.00458e-07 -4.71406e-07)
(0 -2.71145e-07 -4.95573e-07)
(0 -1.83454e-07 -5.69595e-07)
(0 -8.27245e-08 -6.13132e-07)
(0 2.99129e-08 -6.13707e-07)
(0 1.19751e-07 -5.58948e-07)
(0 2.00586e-07 -4.74373e-07)
(0 -2.75459e-07 -4.94756e-07)
(0 -1.85789e-07 -5.72221e-07)
(0 -8.92181e-08 -6.13992e-07)
(0 3.30894e-08 -6.13941e-07)
(0 1.20879e-07 -5.58249e-07)
(0 2.03612e-07 -4.71418e-07)
(0 -2.75281e-07 -4.95333e-07)
(0 -1.85853e-07 -5.727e-07)
(0 -8.90195e-08 -6.14555e-07)
(0 3.28979e-08 -6.14469e-07)
(0 1.20967e-07 -5.58739e-07)
(0 2.03648e-07 -4.71883e-07)
(0 -2.75045e-07 -4.96479e-07)
(0 -1.85974e-07 -5.73713e-07)
(0 -8.85342e-08 -6.15677e-07)
(0 3.24177e-08 -6.15611e-07)
(0 1.21089e-07 -5.59784e-07)
(0 2.03706e-07 -4.72853e-07)
(0 -2.74776e-07 -4.98209e-07)
(0 -1.86084e-07 -5.7531e-07)
(0 -8.8166e-08 -6.17426e-07)
(0 3.20556e-08 -6.17302e-07)
(0 1.21245e-07 -5.61401e-07)
(0 2.03802e-07 -4.74392e-07)
(0 -2.74495e-07 -5.00573e-07)
(0 -1.86194e-07 -5.7755e-07)
(0 -8.7878e-08 -6.1983e-07)
(0 3.17735e-08 -6.19601e-07)
(0 1.21423e-07 -5.63648e-07)
(0 2.03912e-07 -4.76581e-07)
(0 -2.7419e-07 -5.03653e-07)
(0 -1.86293e-07 -5.80492e-07)
(0 -8.7674e-08 -6.22937e-07)
(0 3.15792e-08 -6.22567e-07)
(0 1.21611e-07 -5.66587e-07)
(0 2.03998e-07 -4.79519e-07)
(0 -2.73843e-07 -5.01766e-07)
(0 -1.83104e-07 -5.78457e-07)
(0 -8.45753e-08 -6.20026e-07)
(0 3.35066e-08 -6.18394e-07)
(0 1.2355e-07 -5.60569e-07)
(0 2.07247e-07 -4.72837e-07)
(0 -2.73708e-07 -5.02343e-07)
(0 -1.83213e-07 -5.78966e-07)
(0 -8.45069e-08 -6.20594e-07)
(0 3.33811e-08 -6.18943e-07)
(0 1.2363e-07 -5.61103e-07)
(0 2.07292e-07 -4.73342e-07)
(0 -2.73492e-07 -5.03502e-07)
(0 -1.83313e-07 -5.80026e-07)
(0 -8.41381e-08 -6.21722e-07)
(0 3.30256e-08 -6.20097e-07)
(0 1.23761e-07 -5.62197e-07)
(0 2.07395e-07 -4.74358e-07)
(0 -2.73294e-07 -5.05234e-07)
(0 -1.835e-07 -5.81674e-07)
(0 -8.39807e-08 -6.2348e-07)
(0 3.27728e-08 -6.21823e-07)
(0 1.2391e-07 -5.63889e-07)
(0 2.07509e-07 -4.75966e-07)
(0 -2.73114e-07 -5.07593e-07)
(0 -1.83737e-07 -5.83962e-07)
(0 -8.39447e-08 -6.25897e-07)
(0 3.25872e-08 -6.2417e-07)
(0 1.24069e-07 -5.66227e-07)
(0 2.07619e-07 -4.78239e-07)
(0 -2.7294e-07 -5.10661e-07)
(0 -1.84009e-07 -5.86953e-07)
(0 -8.4029e-08 -6.29021e-07)
(0 3.24736e-08 -6.27196e-07)
(0 1.24229e-07 -5.69268e-07)
(0 2.07684e-07 -4.81272e-07)
(0 -2.80037e-07 -5.0681e-07)
(0 -1.89681e-07 -5.84265e-07)
(0 -9.23901e-08 -6.24675e-07)
(0 3.70397e-08 -6.24281e-07)
(0 1.24854e-07 -5.66166e-07)
(0 2.08387e-07 -4.78201e-07)
(0 -2.79858e-07 -5.07379e-07)
(0 -1.89774e-07 -5.84731e-07)
(0 -9.22043e-08 -6.25234e-07)
(0 3.68163e-08 -6.24804e-07)
(0 1.24947e-07 -5.66662e-07)
(0 2.08417e-07 -4.78667e-07)
(0 -2.796e-07 -5.08526e-07)
(0 -1.90033e-07 -5.85707e-07)
(0 -9.18561e-08 -6.26321e-07)
(0 3.63195e-08 -6.25954e-07)
(0 1.25087e-07 -5.67722e-07)
(0 2.08451e-07 -4.79652e-07)
(0 -2.79324e-07 -5.10243e-07)
(0 -1.90204e-07 -5.87278e-07)
(0 -9.15233e-08 -6.28061e-07)
(0 3.59019e-08 -6.27636e-07)
(0 1.25252e-07 -5.69351e-07)
(0 2.08535e-07 -4.81194e-07)
(0 -2.79033e-07 -5.12585e-07)
(0 -1.90327e-07 -5.895e-07)
(0 -9.12132e-08 -6.30471e-07)
(0 3.55432e-08 -6.29918e-07)
(0 1.2543e-07 -5.71607e-07)
(0 2.08638e-07 -4.8338e-07)
(0 -2.78713e-07 -5.15633e-07)
(0 -1.90393e-07 -5.92432e-07)
(0 -9.09359e-08 -6.33598e-07)
(0 3.52566e-08 -6.3286e-07)
(0 1.25611e-07 -5.74551e-07)
(0 2.08718e-07 -4.86308e-07)
(0 -2.7962e-07 -5.08265e-07)
(0 -1.88243e-07 -5.85299e-07)
(0 -8.85228e-08 -6.26371e-07)
(0 3.61102e-08 -6.25307e-07)
(0 1.26035e-07 -5.65902e-07)
(0 2.09528e-07 -4.77842e-07)
(0 -2.79457e-07 -5.08843e-07)
(0 -1.88345e-07 -5.85795e-07)
(0 -8.84409e-08 -6.26928e-07)
(0 3.59495e-08 -6.25847e-07)
(0 1.26103e-07 -5.66438e-07)
(0 2.09554e-07 -4.78339e-07)
(0 -2.79193e-07 -5.10006e-07)
(0 -1.88545e-07 -5.86822e-07)
(0 -8.81724e-08 -6.28015e-07)
(0 3.55662e-08 -6.26995e-07)
(0 1.26225e-07 -5.67533e-07)
(0 2.09604e-07 -4.79352e-07)
(0 -2.78941e-07 -5.1174e-07)
(0 -1.88734e-07 -5.88443e-07)
(0 -8.80073e-08 -6.29751e-07)
(0 3.52537e-08 -6.28704e-07)
(0 1.26352e-07 -5.69228e-07)
(0 2.09681e-07 -4.80947e-07)
(0 -2.78695e-07 -5.14098e-07)
(0 -1.88915e-07 -5.90714e-07)
(0 -8.79056e-08 -6.32158e-07)
(0 3.49915e-08 -6.31028e-07)
(0 1.26482e-07 -5.71567e-07)
(0 2.09762e-07 -4.83199e-07)
(0 -2.7844e-07 -5.17163e-07)
(0 -1.89077e-07 -5.93693e-07)
(0 -8.78702e-08 -6.35285e-07)
(0 3.47889e-08 -6.34025e-07)
(0 1.26606e-07 -5.74606e-07)
(0 2.09809e-07 -4.86206e-07)
(0 -2.79366e-07 -5.08019e-07)
(0 -1.87135e-07 -5.85684e-07)
(0 -9.08109e-08 -6.25961e-07)
(0 3.53019e-08 -6.27103e-07)
(0 1.22895e-07 -5.67884e-07)
(0 2.08082e-07 -4.78118e-07)
(0 -2.79201e-07 -5.08591e-07)
(0 -1.87282e-07 -5.86142e-07)
(0 -9.06707e-08 -6.26518e-07)
(0 3.51067e-08 -6.27621e-07)
(0 1.23013e-07 -5.68381e-07)
(0 2.08102e-07 -4.78598e-07)
(0 -2.78941e-07 -5.09747e-07)
(0 -1.87553e-07 -5.87108e-07)
(0 -9.03271e-08 -6.27596e-07)
(0 3.46726e-08 -6.28779e-07)
(0 1.23199e-07 -5.69453e-07)
(0 2.08127e-07 -4.79592e-07)
(0 -2.78691e-07 -5.11469e-07)
(0 -1.87816e-07 -5.88666e-07)
(0 -9.0068e-08 -6.29331e-07)
(0 3.43072e-08 -6.30451e-07)
(0 1.2341e-07 -5.71084e-07)
(0 2.08192e-07 -4.81159e-07)
(0 -2.78449e-07 -5.13815e-07)
(0 -1.88071e-07 -5.90875e-07)
(0 -8.98651e-08 -6.31742e-07)
(0 3.39932e-08 -6.32713e-07)
(0 1.23633e-07 -5.73336e-07)
(0 2.08267e-07 -4.83383e-07)
(0 -2.78201e-07 -5.16869e-07)
(0 -1.88306e-07 -5.93796e-07)
(0 -8.97248e-08 -6.34875e-07)
(0 3.37419e-08 -6.35627e-07)
(0 1.23855e-07 -5.76272e-07)
(0 2.08313e-07 -4.8636e-07)
(0 -2.79611e-07 -5.04421e-07)
(0 -1.90146e-07 -5.80494e-07)
(0 -9.18412e-08 -6.21703e-07)
(0 3.17012e-08 -6.2375e-07)
(0 1.21756e-07 -5.64363e-07)
(0 2.05095e-07 -4.75322e-07)
(0 -2.79455e-07 -5.05009e-07)
(0 -1.90235e-07 -5.81017e-07)
(0 -9.17476e-08 -6.22293e-07)
(0 3.15486e-08 -6.24285e-07)
(0 1.21819e-07 -5.64895e-07)
(0 2.05101e-07 -4.75847e-07)
(0 -2.7921e-07 -5.06169e-07)
(0 -1.90439e-07 -5.82049e-07)
(0 -9.14888e-08 -6.23385e-07)
(0 3.11742e-08 -6.25434e-07)
(0 1.21932e-07 -5.65988e-07)
(0 2.05102e-07 -4.76858e-07)
(0 -2.78974e-07 -5.07921e-07)
(0 -1.90606e-07 -5.83718e-07)
(0 -9.13033e-08 -6.25179e-07)
(0 3.08778e-08 -6.27135e-07)
(0 1.22051e-07 -5.67678e-07)
(0 2.05142e-07 -4.785e-07)
(0 -2.78744e-07 -5.10314e-07)
(0 -1.90753e-07 -5.86061e-07)
(0 -9.11683e-08 -6.27669e-07)
(0 3.06367e-08 -6.29447e-07)
(0 1.22175e-07 -5.70014e-07)
(0 2.05191e-07 -4.80825e-07)
(0 -2.78504e-07 -5.13431e-07)
(0 -1.90872e-07 -5.89135e-07)
(0 -9.10882e-08 -6.30903e-07)
(0 3.04595e-08 -6.32431e-07)
(0 1.22295e-07 -5.73054e-07)
(0 2.05214e-07 -4.83927e-07)
(0 -2.79079e-07 -5.03733e-07)
(0 -1.90471e-07 -5.8163e-07)
(0 -9.56366e-08 -6.22296e-07)
(0 2.91875e-08 -6.22118e-07)
(0 1.16042e-07 -5.63869e-07)
(0 1.99234e-07 -4.7914e-07)
(0 -2.78945e-07 -5.04306e-07)
(0 -1.90562e-07 -5.82095e-07)
(0 -9.54418e-08 -6.22862e-07)
(0 2.90143e-08 -6.22653e-07)
(0 1.16164e-07 -5.64396e-07)
(0 1.99259e-07 -4.7962e-07)
(0 -2.78734e-07 -5.05473e-07)
(0 -1.90699e-07 -5.83116e-07)
(0 -9.49664e-08 -6.24006e-07)
(0 2.86032e-08 -6.23822e-07)
(0 1.16344e-07 -5.65489e-07)
(0 1.99304e-07 -4.80676e-07)
(0 -2.78538e-07 -5.07201e-07)
(0 -1.90858e-07 -5.84693e-07)
(0 -9.4605e-08 -6.25763e-07)
(0 2.82783e-08 -6.25526e-07)
(0 1.16562e-07 -5.67172e-07)
(0 1.9938e-07 -4.82247e-07)
(0 -2.78357e-07 -5.09551e-07)
(0 -1.91033e-07 -5.86901e-07)
(0 -9.43219e-08 -6.28171e-07)
(0 2.80145e-08 -6.2783e-07)
(0 1.168e-07 -5.6949e-07)
(0 1.99469e-07 -4.84443e-07)
(0 -2.78176e-07 -5.12606e-07)
(0 -1.91212e-07 -5.89803e-07)
(0 -9.41224e-08 -6.31278e-07)
(0 2.7822e-08 -6.30795e-07)
(0 1.17047e-07 -5.725e-07)
(0 1.99535e-07 -4.87362e-07)
(0 -2.82167e-07 -4.98587e-07)
(0 -1.91442e-07 -5.75355e-07)
(0 -9.26888e-08 -6.18125e-07)
(0 2.83485e-08 -6.17958e-07)
(0 1.15795e-07 -5.59817e-07)
(0 1.96058e-07 -4.76144e-07)
(0 -2.82027e-07 -4.99222e-07)
(0 -1.91583e-07 -5.75904e-07)
(0 -9.26382e-08 -6.18727e-07)
(0 2.82177e-08 -6.18506e-07)
(0 1.15867e-07 -5.6037e-07)
(0 1.9607e-07 -4.76656e-07)
(0 -2.81803e-07 -5.00403e-07)
(0 -1.91741e-07 -5.76959e-07)
(0 -9.23077e-08 -6.1985e-07)
(0 2.78874e-08 -6.19658e-07)
(0 1.15987e-07 -5.61473e-07)
(0 1.96093e-07 -4.77702e-07)
(0 -2.81597e-07 -5.02235e-07)
(0 -1.91983e-07 -5.78675e-07)
(0 -9.21823e-08 -6.21664e-07)
(0 2.76272e-08 -6.21384e-07)
(0 1.16121e-07 -5.63202e-07)
(0 1.96147e-07 -4.79327e-07)
(0 -2.81413e-07 -5.04739e-07)
(0 -1.92266e-07 -5.81078e-07)
(0 -9.21712e-08 -6.24168e-07)
(0 2.74136e-08 -6.23735e-07)
(0 1.16265e-07 -5.65588e-07)
(0 1.96212e-07 -4.81607e-07)
(0 -2.81236e-07 -5.07994e-07)
(0 -1.92577e-07 -5.84225e-07)
(0 -9.22747e-08 -6.2741e-07)
(0 2.72551e-08 -6.26772e-07)
(0 1.1641e-07 -5.68688e-07)
(0 1.96252e-07 -4.84641e-07)
(0 -2.89701e-07 -5.08611e-07)
(0 -2.05825e-07 -5.8097e-07)
(0 -1.06118e-07 -6.22656e-07)
(0 3.13923e-08 -6.16938e-07)
(0 1.14406e-07 -5.59046e-07)
(0 1.92127e-07 -4.75845e-07)
(0 -2.89559e-07 -5.09144e-07)
(0 -2.05869e-07 -5.81451e-07)
(0 -1.05904e-07 -6.2319e-07)
(0 3.11413e-08 -6.17495e-07)
(0 1.14499e-07 -5.59586e-07)
(0 1.92171e-07 -4.76349e-07)
(0 -2.89251e-07 -5.10362e-07)
(0 -2.06139e-07 -5.82459e-07)
(0 -1.05584e-07 -6.24302e-07)
(0 3.0643e-08 -6.18684e-07)
(0 1.14634e-07 -5.60693e-07)
(0 1.92243e-07 -4.77416e-07)
(0 -2.89026e-07 -5.12028e-07)
(0 -2.06233e-07 -5.84059e-07)
(0 -1.05207e-07 -6.26001e-07)
(0 3.01795e-08 -6.20429e-07)
(0 1.14799e-07 -5.62401e-07)
(0 1.92352e-07 -4.79031e-07)
(0 -2.88835e-07 -5.14245e-07)
(0 -2.06225e-07 -5.86302e-07)
(0 -1.0481e-07 -6.28337e-07)
(0 2.97515e-08 -6.22786e-07)
(0 1.14982e-07 -5.64754e-07)
(0 1.92479e-07 -4.81286e-07)
(0 -2.88654e-07 -5.17106e-07)
(0 -2.06117e-07 -5.89244e-07)
(0 -1.04406e-07 -6.31362e-07)
(0 2.93805e-08 -6.25813e-07)
(0 1.15171e-07 -5.67807e-07)
(0 1.92586e-07 -4.8428e-07)
(0 -2.92713e-07 -5.04227e-07)
(0 -2.05436e-07 -5.76257e-07)
(0 -1.01078e-07 -6.19935e-07)
(0 3.25706e-08 -6.14446e-07)
(0 1.16055e-07 -5.56754e-07)
(0 1.9179e-07 -4.74489e-07)
(0 -2.92558e-07 -5.04809e-07)
(0 -2.05515e-07 -5.76794e-07)
(0 -1.00987e-07 -6.20483e-07)
(0 3.23884e-08 -6.15006e-07)
(0 1.16125e-07 -5.57309e-07)
(0 1.91834e-07 -4.74992e-07)
(0 -2.9222e-07 -5.06048e-07)
(0 -2.05748e-07 -5.77832e-07)
(0 -1.00743e-07 -6.21574e-07)
(0 3.20145e-08 -6.16169e-07)
(0 1.16242e-07 -5.58418e-07)
(0 1.91915e-07 -4.76035e-07)
(0 -2.91971e-07 -5.07799e-07)
(0 -2.05901e-07 -5.79526e-07)
(0 -1.00566e-07 -6.23296e-07)
(0 3.16623e-08 -6.17918e-07)
(0 1.1637e-07 -5.60151e-07)
(0 1.92027e-07 -4.77646e-07)
(0 -2.9177e-07 -5.1014e-07)
(0 -2.06e-07 -5.819e-07)
(0 -1.00423e-07 -6.25679e-07)
(0 3.13325e-08 -6.20297e-07)
(0 1.16506e-07 -5.62542e-07)
(0 1.9215e-07 -4.79909e-07)
(0 -2.91594e-07 -5.1316e-07)
(0 -2.06042e-07 -5.85007e-07)
(0 -1.0032e-07 -6.28778e-07)
(0 3.10441e-08 -6.23362e-07)
(0 1.16641e-07 -5.65645e-07)
(0 1.92245e-07 -4.82924e-07)
(0 -2.9313e-07 -5.01209e-07)
(0 -2.03661e-07 -5.74395e-07)
(0 -9.95981e-08 -6.17952e-07)
(0 3.92127e-08 -6.13397e-07)
(0 1.17695e-07 -5.56666e-07)
(0 1.9175e-07 -4.739e-07)
(0 -2.92981e-07 -5.01787e-07)
(0 -2.03785e-07 -5.74904e-07)
(0 -9.94625e-08 -6.18506e-07)
(0 3.89261e-08 -6.13968e-07)
(0 1.17773e-07 -5.57213e-07)
(0 1.918e-07 -4.74416e-07)
(0 -2.9263e-07 -5.03013e-07)
(0 -2.04144e-07 -5.75897e-07)
(0 -9.92103e-08 -6.19603e-07)
(0 3.84059e-08 -6.15178e-07)
(0 1.17886e-07 -5.58337e-07)
(0 1.91888e-07 -4.75484e-07)
(0 -2.92392e-07 -5.04756e-07)
(0 -2.04379e-07 -5.77544e-07)
(0 -9.89718e-08 -6.21333e-07)
(0 3.78782e-08 -6.16948e-07)
(0 1.18024e-07 -5.6006e-07)
(0 1.92011e-07 -4.77117e-07)
(0 -2.92212e-07 -5.07096e-07)
(0 -2.0454e-07 -5.79875e-07)
(0 -9.87494e-08 -6.23728e-07)
(0 3.73588e-08 -6.19331e-07)
(0 1.18172e-07 -5.62426e-07)
(0 1.92145e-07 -4.794e-07)
(0 -2.92067e-07 -5.10122e-07)
(0 -2.04625e-07 -5.82944e-07)
(0 -9.85521e-08 -6.26838e-07)
(0 3.68728e-08 -6.22386e-07)
(0 1.18322e-07 -5.65491e-07)
(0 1.92251e-07 -4.82432e-07)
(0 -2.92947e-07 -4.99137e-07)
(0 -2.02692e-07 -5.723e-07)
(0 -9.52952e-08 -6.17015e-07)
(0 3.96187e-08 -6.13133e-07)
(0 1.19206e-07 -5.5663e-07)
(0 1.9166e-07 -4.7469e-07)
(0 -2.928e-07 -4.99718e-07)
(0 -2.02786e-07 -5.7283e-07)
(0 -9.52235e-08 -6.17561e-07)
(0 3.94128e-08 -6.13693e-07)
(0 1.19268e-07 -5.5718e-07)
(0 1.91709e-07 -4.75193e-07)
(0 -2.9244e-07 -5.00951e-07)
(0 -2.0305e-07 -5.73859e-07)
(0 -9.50138e-08 -6.18645e-07)
(0 3.90165e-08 -6.14868e-07)
(0 1.1937e-07 -5.58293e-07)
(0 1.918e-07 -4.7623e-07)
(0 -2.92202e-07 -5.02701e-07)
(0 -2.03234e-07 -5.75541e-07)
(0 -9.48743e-08 -6.20362e-07)
(0 3.86214e-08 -6.16617e-07)
(0 1.19485e-07 -5.6002e-07)
(0 1.91921e-07 -4.7784e-07)
(0 -2.92031e-07 -5.05049e-07)
(0 -2.03363e-07 -5.77906e-07)
(0 -9.47729e-08 -6.22746e-07)
(0 3.82354e-08 -6.1899e-07)
(0 1.19605e-07 -5.62398e-07)
(0 1.92053e-07 -4.80107e-07)
(0 -2.91901e-07 -5.08084e-07)
(0 -2.03436e-07 -5.81007e-07)
(0 -9.47133e-08 -6.25848e-07)
(0 3.78803e-08 -6.22041e-07)
(0 1.19725e-07 -5.65481e-07)
(0 1.92158e-07 -4.83127e-07)
(0 -2.93375e-07 -4.9868e-07)
(0 -2.01663e-07 -5.72529e-07)
(0 -9.61021e-08 -6.1656e-07)
(0 4.42102e-08 -6.13278e-07)
(0 1.1979e-07 -5.57638e-07)
(0 1.91455e-07 -4.75746e-07)
(0 -2.93226e-07 -4.99253e-07)
(0 -2.018e-07 -5.73031e-07)
(0 -9.59691e-08 -6.17112e-07)
(0 4.3913e-08 -6.13858e-07)
(0 1.19867e-07 -5.58195e-07)
(0 1.91506e-07 -4.76266e-07)
(0 -2.92873e-07 -5.00467e-07)
(0 -2.02204e-07 -5.74007e-07)
(0 -9.57476e-08 -6.18195e-07)
(0 4.33968e-08 -6.15085e-07)
(0 1.19982e-07 -5.59333e-07)
(0 1.91594e-07 -4.7734e-07)
(0 -2.92635e-07 -5.02202e-07)
(0 -2.02465e-07 -5.7564e-07)
(0 -9.55175e-08 -6.19921e-07)
(0 4.28507e-08 -6.16872e-07)
(0 1.20117e-07 -5.61073e-07)
(0 1.91718e-07 -4.78981e-07)
(0 -2.92456e-07 -5.04537e-07)
(0 -2.02638e-07 -5.77959e-07)
(0 -9.52893e-08 -6.22318e-07)
(0 4.23005e-08 -6.19272e-07)
(0 1.20261e-07 -5.63456e-07)
(0 1.91856e-07 -4.81273e-07)
(0 -2.92309e-07 -5.07561e-07)
(0 -2.0272e-07 -5.81018e-07)
(0 -9.50724e-08 -6.25439e-07)
(0 4.17741e-08 -6.22341e-07)
(0 1.20403e-07 -5.66539e-07)
(0 1.91968e-07 -4.84313e-07)
(0 -2.91805e-07 -4.98661e-07)
(0 -2.00208e-07 -5.71972e-07)
(0 -9.21598e-08 -6.17326e-07)
(0 4.28962e-08 -6.15697e-07)
(0 1.19921e-07 -5.60333e-07)
(0 1.91521e-07 -4.78369e-07)
(0 -2.91656e-07 -4.99238e-07)
(0 -2.00296e-07 -5.72506e-07)
(0 -9.20827e-08 -6.17878e-07)
(0 4.26744e-08 -6.16251e-07)
(0 1.19978e-07 -5.60877e-07)
(0 1.91572e-07 -4.78871e-07)
(0 -2.91289e-07 -5.00462e-07)
(0 -2.00583e-07 -5.73533e-07)
(0 -9.18992e-08 -6.18959e-07)
(0 4.22662e-08 -6.17426e-07)
(0 1.20072e-07 -5.61987e-07)
(0 1.91666e-07 -4.7991e-07)
(0 -2.91049e-07 -5.02205e-07)
(0 -2.0076e-07 -5.7522e-07)
(0 -9.17566e-08 -6.20685e-07)
(0 4.18453e-08 -6.19167e-07)
(0 1.20179e-07 -5.63703e-07)
(0 1.9179e-07 -4.8152e-07)
(0 -2.90874e-07 -5.04548e-07)
(0 -2.00866e-07 -5.77592e-07)
(0 -9.16352e-08 -6.23085e-07)
(0 4.1425e-08 -6.21525e-07)
(0 1.20291e-07 -5.66067e-07)
(0 1.91923e-07 -4.83786e-07)
(0 -2.90739e-07 -5.07581e-07)
(0 -2.00899e-07 -5.80704e-07)
(0 -9.15392e-08 -6.26208e-07)
(0 4.10293e-08 -6.24559e-07)
(0 1.204e-07 -5.69133e-07)
(0 1.92023e-07 -4.86807e-07)
(0 -2.88518e-07 -4.99777e-07)
(0 -1.94015e-07 -5.74432e-07)
(0 -8.957e-08 -6.19321e-07)
(0 4.42353e-08 -6.1753e-07)
(0 1.16812e-07 -5.63486e-07)
(0 1.89393e-07 -4.81315e-07)
(0 -2.88376e-07 -5.00355e-07)
(0 -1.94194e-07 -5.74929e-07)
(0 -8.94771e-08 -6.19868e-07)
(0 4.39667e-08 -6.18116e-07)
(0 1.16918e-07 -5.64042e-07)
(0 1.89456e-07 -4.81843e-07)
(0 -2.88013e-07 -5.0157e-07)
(0 -1.94656e-07 -5.75914e-07)
(0 -8.93152e-08 -6.20951e-07)
(0 4.35133e-08 -6.19347e-07)
(0 1.17083e-07 -5.65177e-07)
(0 1.89564e-07 -4.82923e-07)
(0 -2.8779e-07 -5.03313e-07)
(0 -1.94994e-07 -5.77543e-07)
(0 -8.91584e-08 -6.22672e-07)
(0 4.30202e-08 -6.21143e-07)
(0 1.17273e-07 -5.66914e-07)
(0 1.89709e-07 -4.84576e-07)
(0 -2.87644e-07 -5.0566e-07)
(0 -1.95256e-07 -5.79853e-07)
(0 -8.90108e-08 -6.25065e-07)
(0 4.25159e-08 -6.23555e-07)
(0 1.17473e-07 -5.69297e-07)
(0 1.89866e-07 -4.86885e-07)
(0 -2.87547e-07 -5.08699e-07)
(0 -1.95436e-07 -5.82899e-07)
(0 -8.88788e-08 -6.28179e-07)
(0 4.2027e-08 -6.26641e-07)
(0 1.17671e-07 -5.72383e-07)
(0 1.89991e-07 -4.89948e-07)
(0 -2.8651e-07 -5.01293e-07)
(0 -1.92058e-07 -5.7487e-07)
(0 -8.57648e-08 -6.21351e-07)
(0 4.12372e-08 -6.22942e-07)
(0 1.1483e-07 -5.70204e-07)
(0 1.86504e-07 -4.88375e-07)
(0 -2.86376e-07 -5.0188e-07)
(0 -1.92191e-07 -5.75441e-07)
(0 -8.57381e-08 -6.21943e-07)
(0 4.10192e-08 -6.23494e-07)
(0 1.14891e-07 -5.70736e-07)
(0 1.86547e-07 -4.88867e-07)
(0 -2.86007e-07 -5.03104e-07)
(0 -1.92542e-07 -5.76495e-07)
(0 -8.56305e-08 -6.23042e-07)
(0 4.06369e-08 -6.2466e-07)
(0 1.14993e-07 -5.71829e-07)
(0 1.86623e-07 -4.8989e-07)
(0 -2.85796e-07 -5.04867e-07)
(0 -1.92809e-07 -5.78249e-07)
(0 -8.55847e-08 -6.24839e-07)
(0 4.02262e-08 -6.26397e-07)
(0 1.15109e-07 -5.73522e-07)
(0 1.86737e-07 -4.91479e-07)
(0 -2.85675e-07 -5.07245e-07)
(0 -1.93021e-07 -5.80707e-07)
(0 -8.55725e-08 -6.2733e-07)
(0 3.98051e-08 -6.28758e-07)
(0 1.15232e-07 -5.75858e-07)
(0 1.86864e-07 -4.93721e-07)