/*--------------------------------*- C++ -*----------------------------------*\
  =========                 |
  \\      /  F ield         | OpenFOAM: The Open Source CFD Toolbox
   \\    /   O peration     | Website:  https://openfoam.org
    \\  /    A nd           | Version:  13
     \\/     M anipulation  |
\*---------------------------------------------------------------------------*/
FoamFile
{
    format      ascii;
    class       volSymmTensorField;
    location    "1";
    object      sigma;
}
// * * * * * * * * * * * * * * * * * * * * * * * * * * * * * * * * * * * * * //

dimensions      [1 -1 -2 0 0 0 0];

internalField   nonuniform List<symmTensor> 
17280
(
(585.55 -244.357 -423.741 645.324 -74.2592 655.899)
(339.638 -162.172 -498.543 402.911 -38.0437 351.84)
(486.803 -53.4919 -555.406 600.378 -22.865 481.406)
(380.102 60.1528 -557.699 471.92 14.9302 372.751)
(444.842 132.259 -508.638 520.596 51.7309 467.943)
(677.479 223.57 -412.565 755.396 81.5492 750.112)
(467.927 -244.364 -425.804 532.615 -72.2368 507.223)
(231.156 -162.178 -501.069 296.451 -37.0789 217.23)
(384.286 -53.5903 -557.883 500.393 -22.8098 353.576)
(276.382 59.8111 -560.195 370.38 10.6407 243.803)
(340.712 132.256 -511.053 418.288 48.6888 338.85)
(605.947 223.85 -414.848 690.319 83.2047 656.23)
(356.721 -243.459 -429.966 429.407 -77.2433 363.306)
(67.7567 -162.649 -505.404 133.5 -36.016 17.0701)
(233.77 -53.8348 -562.291 352.278 -23.2271 167.212)
(124.01 59.0824 -564.615 220.011 9.48314 55.5681)
(191.27 132.152 -515.339 270.78 48.4381 154.264)
(499.104 224.42 -418.804 592.696 88.6202 516.424)
(220.08 -243.509 -436.827 306.7 -94.7974 182.367)
(-209.403 -162.722 -513.186 -143.541 -32.9612 -321.798)
(-23.9974 -54.0326 -570.009 96.6981 -23.0078 -150.026)
(-133.993 58.4282 -572.367 -35.8305 11.08 -261.932)
(-68.5646 132.151 -522.933 12.6848 49.734 -165.051)
(302.047 225.091 -426.015 407.861 96.6437 263.354)
(75.9261 -244.061 -446.776 179.422 -110.624 -10.6976)
(-480.533 -162.573 -524.385 -413.555 -31.1038 -654.296)
(-285.812 -54.1932 -581.068 -163.111 -22.7018 -472.026)
(-394.582 57.8186 -583.465 -294.18 11.7095 -582.669)
(-335.116 132.189 -533.887 -252.464 49.7518 -492.238)
(126.264 225.756 -436.535 247.812 106.098 32.7742)
(-90.96 -244.888 -460.306 31.4638 -122.729 -233.597)
(-724.811 -162.223 -539.266 -654.558 -39.0796 -956.132)
(-555.179 -54.31 -595.745 -430.877 -24.5785 -802.853)
(-660.927 57.2671 -598.182 -558.284 16.1568 -910.443)
(-609.007 132.228 -548.492 -525.514 54.4901 -827.835)
(4.24979 226.22 -450.838 145.972 127.933 -136.528)
(1566.09 -219.959 -357.73 1751.43 -178.036 1728.76)
(1194.94 -132.372 -432.65 1409.07 -123.082 1246.36)
(972.369 -58.5609 -478.959 1190.34 -49.198 970.485)
(756.858 34.2987 -482.265 930.904 33.8526 751.003)
(947.918 93.4241 -445.801 1100.23 112.134 1006.25)
(1703.34 166.945 -381.038 1916.19 199.601 1869)
(1431.09 -219.665 -357.623 1624.22 -180.895 1555.98)
(1012.34 -132.659 -432.277 1233.54 -134.468 1016.1)
(767.58 -58.4522 -478.643 991.9 -53.2641 713.833)
(543.99 34.2775 -482.003 723.277 32.7773 485.59)
(753.642 93.7574 -445.476 911.103 119.349 763.656)
(1573.69 167.133 -380.623 1797.24 216.733 1699.85)
(1335.32 -219.656 -357.768 1539.47 -190.239 1427.91)
(844.753 -133.14 -432.262 1071.05 -139.864 806.177)
(600.668 -58.1514 -478.755 832.601 -56.0145 502.217)
(367.964 34.3664 -482.251 553.306 33.1083 264.392)
(592.578 94.4178 -445.602 756.232 124.794 560.609)
(1477.36 167.453 -380.647 1713.33 230.075 1569.69)
(1261 -219.205 -357.342 1481.11 -208.147 1321.11)
(658.073 -133.642 -431.392 888.59 -140.029 573.795)
(433.739 -57.947 -477.984 673.633 -57.8746 290.231)
(193.942 34.3462 -481.581 386.055 34.6367 44.9281)
(427.618 95.0347 -444.812 597.863 129.793 352.399)
(1384.28 167.772 -379.704 1634.91 242.716 1441.27)
(1184.11 -218.52 -356.324 1423.58 -226.365 1207.78)
(461.042 -134.125 -429.825 696.461 -142.08 328.076)
(250.62 -57.7939 -476.484 498.695 -59.97 58.2387)
(6.77912 34.2775 -480.151 206.262 36.2191 -191.198)
(245.833 95.628 -443.259 422.794 134.912 123.5)
(1294.43 168.095 -378.049 1563.17 258.511 1313.34)
(1067.88 -217.66 -354.57 1330.42 -245.142 1042.66)
(271.414 -134.559 -427.447 511.996 -141.288 91.1465)
(69.8987 -57.6919 -474.136 326.474 -58.9584 -171.143)
(-169.943 34.1767 -477.842 37.9509 40.0385 -415.601)
(51.4288 96.1793 -440.829 234.808 133.628 -120.522)
(1197.59 168.406 -375.543 1487.58 267.723 1173.74)
(2163.68 -161.213 -268.409 2403.36 -247.432 2404.82)
(1868.24 -115.568 -313.88 2174.97 -193.302 1976.67)
(1713.18 -58.8818 -349.662 2079.75 -77.9356 1727.32)
(1463.77 21.5253 -354.922 1782.05 54.5859 1470.77)
(1688.8 77.4761 -326.84 1958.84 181.023 1794.06)
(2457.6 132.106 -279.698 2745.16 278.246 2716.18)
(2041.25 -161.219 -268.539 2291.28 -249.901 2244.83)
(1770.44 -115.499 -313.926 2086.96 -201.616 1847.36)
(1599.24 -58.7349 -349.654 1975.55 -76.9962 1578.31)
(1333.45 21.4361 -354.909 1660.38 51.4151 1302.85)
(1579.24 77.4668 -326.833 1857.77 187.962 1651.66)
(2393.3 131.887 -279.741 2693.88 288.352 2624.56)
(1965.07 -161.301 -268.795 2229.11 -260.4 2137.71)
(1644.99 -115.41 -313.865 1970.04 -206.856 1685.51)
(1475.83 -58.4802 -349.525 1862.91 -78.7627 1416.7)
(1198.83 21.2671 -354.829 1534.99 51.3703 1129.08)
(1459.34 77.4844 -326.749 1746.62 193.992 1496.35)
(2333.76 131.43 -279.737 2649.45 300.988 2536.67)
(1923.74 -161.332 -269.033 2206.64 -279.607 2068.34)
(1473.78 -115.304 -313.93 1806.59 -207.639 1468.47)
(1326.64 -58.2129 -349.496 1724.97 -82.0473 1223.12)
(1049.06 21.1032 -354.793 1395.29 53.253 935.957)
(1315.77 77.4761 -326.721 1611.87 199.093 1312.05)
(2269.39 131.039 -279.793 2603.37 315.789 2439.73)
(1881.12 -161.323 -269.251 2186.39 -298.752 1993.87)
(1303.09 -115.188 -314.06 1644.53 -209.782 1251.23)
(1169.97 -57.9477 -349.522 1579.83 -84.6471 1020.11)
(892.602 20.9409 -354.78 1249.59 54.8938 733.972)
(1162.79 77.451 -326.723 1467.96 204.031 1116.01)
(2214.35 130.668 -279.888 2570.3 331.976 2350.49)
(1785.55 -161.282 -269.455 2117.4 -324.58 1850.48)
(1068.57 -115.061 -314.262 1419.48 -217.819 955.115)
(923.069 -57.6938 -349.617 1344.76 -90.3856 706.503)
(650.068 20.7878 -354.809 1018.82 62.7045 425.773)
(904.966 77.4014 -326.774 1218.45 208.638 792.584)
(2097.35 130.32 -280.039 2480.45 356.457 2180.31)
(2471.4 -114.278 -205.601 2760.62 -280.048 2731.39)
(2192.45 -81.6513 -235.537 2563.59 -226.454 2308.52)
(1968.17 -48.9124 -257.419 2393.02 -94.3596 1980.71)
(1711.69 7.36724 -260.68 2087.78 64.7571 1715.98)
(1955.55 43.1334 -243.942 2271.43 212.084 2074.23)
(2810.47 76.5661 -214.358 3151.65 321.712 3093.85)
(2340.2 -114.397 -205.774 2641.37 -287.196 2559.08)
(2039.91 -81.8895 -235.687 2422.93 -240.909 2110.2)
(1793.68 -48.9115 -257.592 2230.52 -97.2614 1755.43)
(1523.66 7.30845 -260.836 1910.53 63.0361 1475.37)
(1793.8 43.2975 -244.039 2120.05 223.316 1866.17)
(2711.48 76.6754 -214.392 3066.67 339.165 2958.84)
(2268.36 -114.606 -206.028 2584.95 -300.525 2455.85)
(1901.81 -82.1834 -235.997 2295.34 -249.357 1930.91)
(1655.33 -48.8402 -257.935 2105.72 -100.563 1572.8)
(1375.06 7.17412 -261.103 1773.9 63.7758 1281.79)
(1662.92 43.5238 -244.21 2000.27 231.986 1695.11)
(2648.53 76.8913 -214.475 3019.71 355.38 2865.92)
(2237.02 -114.838 -206.347 2573.44 -321.116 2397.71)
(1740.19 -82.5895 -236.28 2143.6 -252.447 1723.5)
(1514.39 -48.8226 -258.26 1979.13 -104.12 1386.17)
(1232.97 7.06423 -261.39 1644.91 66.4691 1095.03)
(1529.1 43.8133 -244.388 1877.95 239.621 1520.04)
(2594.5 77.0828 -214.539 2984.6 373.347 2780.96)
(2201.64 -115.082 -206.685 2561.52 -342.667 2331.01)
(1572.64 -83.0449 -236.554 1986.82 -257.583 1507.94)
(1360.81 -48.8252 -258.576 1840.56 -107.765 1183.48)
(1079.06 6.97894 -261.686 1505.08 69.181 892.825)
(1380.69 44.1402 -244.57 1741.59 247.68 1326.62)
(2542.68 77.2881 -214.615 2955.35 393.631 2695.05)
(2148.79 -115.344 -207.04 2536.04 -366.672 2239.05)
(1430.98 -83.541 -236.831 1856.25 -260.773 1323.7)
(1218.36 -48.8567 -258.898 1713.98 -110.943 993.49)
(936.459 6.92546 -262.003 1378.15 76.0107 702.873)
(1218.99 44.4999 -244.773 1591.58 249.212 1117.28)
(2497.9 77.5316 -214.725 2937.28 411.006 2613.6)
(2751.72 -101.923 -171.278 3066.58 -314.604 3048.34)
(2509.64 -86.7296 -195.97 2916.86 -262.561 2660.12)
(2383.88 -56.8284 -210.529 2892.22 -106.707 2405.29)
(2144.29 0.509986 -212.028 2609.11 74.89 2155.98)
(2343.81 36.4005 -198.01 2721.97 246.256 2486.5)
(3160.88 61.3129 -175.945 3525.63 357.277 3498.54)
(2625.55 -101.951 -171.354 2953.2 -321.345 2881.35)
(2409.47 -86.5363 -195.932 2829.92 -275.438 2524.46)
(2264.1 -56.5758 -210.492 2786.24 -105.604 2245.09)
(2014.2 0.403662 -211.934 2491.83 70.8508 1984.17)
(2244.56 36.3356 -197.916 2634.98 257.243 2352.92)
(3111.26 61.1693 -175.859 3490.13 371.099 3423.79)
(2561.07 -102.046 -171.472 2905.34 -335.183 2785.92)
(2298.21 -86.5021 -195.83 2730.94 -283.898 2376.19)
(2152.03 -56.4194 -210.377 2689.29 -107.925 2092.99)
(1893.09 0.165692 -211.762 2384.44 71.102 1822.41)
(2144.26 36.2382 -197.753 2547.59 266.307 2217.44)
(3070.95 60.9664 -175.726 3466.38 386.519 3357.95)
(2534.81 -102.089 -171.605 2899.76 -356.538 2733.15)
(2154.09 -86.1902 -195.765 2598.57 -287.896 2188.3)
(2028.65 -55.9913 -210.313 2582.04 -112.645 1926.07)
(1765.99 -0.0306672 -211.597 2272.43 74.405 1651.98)
(2025.92 36.1203 -197.582 2442.3 274.428 2059.73)
(3029.76 60.7233 -175.574 3444.92 403.653 3287.89)
(2507.97 -102.06 -171.746 2897.21 -378.406 2676.05)
(2005.12 -85.7435 -195.722 2462.35 -293.262 1993.47)
(1894.25 -55.4388 -210.278 2464.49 -116.574 1744.94)
(1630.51 -0.186881 -211.448 2153.13 77.4394 1470.22)
(1895.48 35.994 -197.416 2325.28 282.642 1886.9)
(2992.92 60.4669 -175.422 3431.84 423.228 3219.1)
(2469.59 -101.965 -171.891 2887.29 -404.767 2600.69)
(1817.46 -85.1766 -195.71 2288 -299.903 1750.81)
(1701.85 -54.7796 -210.279 2290.02 -124.339 1491.87)
(1439.72 -0.293937 -211.323 1980.22 87.3681 1219.16)
(1678.01 35.8646 -197.265 2120.31 286.909 1608.6)
(2907.96 60.2093 -175.277 3376.08 449.063 3086.05)
(2855.95 -85.3591 -144.584 3187.36 -325.598 3159.19)
(2661.33 -48.1087 -167.03 3103.05 -274.194 2811.02)
(2575.68 -24.6698 -172.387 3130.06 -112.316 2593.67)
(2361.2 -5.24559 -162.558 2875.43 84.0977 2371.68)
(2494.98 20.3493 -149.373 2900.84 262.164 2643.57)
(3290.17 34.5953 -132.537 3680.66 374.576 3630.84)
(2727.52 -85.2459 -144.642 3072.61 -335.321 2988.54)
(2529.03 -48.2322 -167.081 2985.11 -289.986 2634.97)
(2420.98 -24.6577 -172.506 2990.59 -113.945 2389.36)
(2199.68 -5.23239 -162.677 2728.17 80.7011 2160.01)
(2360.9 20.3724 -149.444 2779.96 274.317 2466.48)
(3213.54 34.7365 -132.615 3619.18 391.972 3522.04)
(2665.44 -85.2296 -144.627 3027.68 -350.472 2895.51)
(2407.68 -47.9954 -167.268 2876.93 -299.391 2473.46)
(2299.43 -24.2024 -172.768 2886.02 -116.673 2223.82)
(2072.04 -5.34773 -162.848 2616.27 81.4014 1988.27)
(2251.72 20.3695 -149.563 2684.91 284.303 2318.92)
(3167.54 34.8688 -132.734 3590.51 409.176 3448.48)
(2646.06 -85.0441 -144.719 3029.57 -371.363 2850.57)
(2260.78 -48.1599 -167.355 2742.92 -301.314 2281.03)
(2170.01 -24.1284 -172.979 2774.4 -118.232 2047.85)
(1945.16 -5.33541 -163.061 2506.24 85.8437 1816.35)
(2135.21 20.4114 -149.693 2582.88 293.514 2162.04)
(3128.98 35.0989 -132.875 3572.37 428.524 3380.91)
(2622.96 -84.7896 -144.865 3031.42 -393.329 2797.39)
(2109.88 -48.5552 -167.371 2606.16 -306.316 2082.45)
(2029.52 -24.2758 -173.139 2652.48 -120.728 1857.57)
(1806.64 -5.2489 -163.293 2385.63 90.1295 1629.12)
(2004.37 20.4942 -149.832 2467.15 303.267 1987.02)
(3093.06 35.3922 -133.022 3560.75 450.43 3312.73)
(2605.62 -84.4958 -145.056 3043.13 -419.98 2747.14)
(1988.58 -49.1505 -167.333 2499.87 -314.947 1919.19)
(1906.58 -24.6299 -173.258 2549.27 -129.633 1687.57)
(1675.46 -5.0989 -163.547 2274.06 99.1735 1449.18)
(1851.15 20.6218 -149.984 2328.7 307.428 1784.97)
(3056.86 35.7436 -133.177 3553.58 471.97 3239.45)
(3185.66 -80.0629 -129.307 3555.97 -360.351 3523.27)
(3065.81 -43.4462 -156.748 3569.94 -313.075 3242.96)
(2677.5 -17.4299 -159.46 3251.21 -108.284 2698.78)
(2498.57 -4.91094 -140.492 3037.27 99.7458 2515.12)
(2740.33 21.135 -122.22 3182.77 285.342 2906.86)
(3505.31 39.472 -103.521 3911.25 397.585 3878.34)
(3077.65 -79.7754 -129.262 3462.79 -368.752 3376.44)
(2966.65 -43.4058 -156.461 3486.53 -324.758 3106.02)
(2547.79 -17.3608 -159.206 3137.26 -102.763 2524.5)
(2366.98 -4.84883 -140.435 2920.47 95.1392 2339.49)
(2646.22 21.1299 -122.173 3102.95 297.451 2777.53)
(3457.12 39.4101 -103.545 3878.28 413.517 3804.21)
(3029.85 -79.5864 -129.171 3433.84 -384.088 3299.15)
(2875.89 -43.0807 -156.338 3411.96 -335.028 2978.91)
(2436.34 -16.9118 -159.096 3042.22 -104.151 2371.88)
(2248.29 -4.88468 -140.334 2816.94 96.0907 2179.27)
(2557.45 21.115 -122.09 3029.56 307.904 2653.66)
(3423.62 39.4205 -103.557 3862.46 430.513 3745.58)
(3000.22 -79.0927 -129.072 3425.71 -404.007 3241.45)
(2771.14 -42.9773 -155.841 3322.82 -346.393 2835.27)
(2334.92 -16.754 -158.663 2959.29 -114.317 2229.41)
(2128.41 -4.78756 -140.228 2714.38 102.241 2015.42)
(2452.5 21.1019 -122.009 2940.05 318.114 2509.94)
(3391.15 39.3245 -103.598 3850.8 449.938 3685.09)
(2976.1 -78.4578 -128.946 3426.92 -425.769 3186.63)
(2651.68 -42.996 -155.148 3219.22 -357.076 2673.4)
(2222.11 -16.7596 -158.066 2866.43 -122.079 2071.6)
(2001.74 -4.615 -140.11 2606.64 107.468 1841.68)
(2334.5 21.0888 -121.935 2838.02 328.619 2349.76)
(3362.57 39.168 -103.659 3847.03 471.882 3625.35)
(2971.12 -77.719 -128.792 3452.71 -457.459 3149.77)
(2467.34 -43.1212 -154.288 3049.59 -360.879 2433.38)
(2055.78 -16.918 -157.322 2721.95 -129.247 1846.44)
(1844.1 -4.38053 -139.981 2470.14 117.398 1627.87)
(2144.26 21.0785 -121.873 2663.15 333.868 2101.87)
(3302.66 38.9642 -103.737 3817.28 496.636 3521.97)
(3291.46 -49.7549 -92.5991 3672.32 -370.735 3642.02)
(3252.6 -31.1687 -97.5751 3794.89 -324.033 3433.1)
(2821.79 -8.64047 -97.5683 3429.08 -106.228 2841.56)
(2655.38 3.39067 -108.297 3226.14 116.442 2674.69)
(2930.87 22.4285 -93.2267 3405.74 306.041 3107.31)
(3600.89 36.3106 -78.5253 4025.81 409.571 3976.17)
(3184.32 -49.6523 -92.5655 3580.24 -379.937 3496.04)
(3143.55 -31.1945 -97.6075 3702.68 -338.048 3282.97)
(2681.33 -8.68275 -97.6862 3305.4 -103.644 2653.11)
(2508.1 3.35535 -108.276 3094.64 113.223 2478.92)
(2813.91 22.4079 -93.2762 3303.79 319.253 2949.33)
(3532.58 36.2756 -78.5646 3973.86 428.239 3876.31)
(3140.22 -49.3554 -92.4667 3554.88 -395.315 3423.38)
(3053.64 -31.4019 -97.398 3629.62 -348.63 3156.25)
(2572.59 -8.83386 -97.5444 3214.65 -105.322 2502.21)
(2388.79 3.18686 -108.317 2992.06 114.974 2316.37)
(2720.21 22.3722 -93.3628 3226.51 330.499 2818.39)
(3495.41 36.1711 -78.6399 3955.24 446.451 3812.34)
(3127 -49.1514 -92.4042 3563.38 -413.14 3385.5)
(2966.13 -31.4647 -97.4337 3558.36 -355.59 3033.03)
(2484.27 -8.92459 -97.7279 3146.02 -111.413 2374.57)
(2272.02 3.11188 -108.282 2893.83 122.287 2155.1)
(2615.12 22.3283 -93.4503 3137.88 341.074 2673.49)
(3463.57 36.0989 -78.711 3944.99 465.713 3751.84)
(3116.1 -49.0119 -92.4032 3578.31 -433.527 3346.36)
(2859 -31.4731 -97.6322 3467.99 -363.885 2885.33)
(2378.24 -9.00446 -98.1038 3060.99 -117.01 2224)
(2146.44 3.09362 -108.212 2788.22 128.714 1981.64)
(2494.75 22.2824 -93.5351 3034.42 352.161 2509.46)
(3435.79 36.0288 -78.7799 3942.85 488.078 3692.25)
(3107.9 -48.9438 -92.4709 3602.08 -468.904 3304.37)
(2684.1 -31.436 -97.9869 3309.17 -371.914 2655.49)
(2223.41 -9.07042 -98.6566 2928.79 -125.927 2012.13)
(2018.12 3.12602 -108.126 2681.8 136.645 1802.91)
(2348.53 22.2357 -93.6195 2904.66 357.634 2314.3)
(3421.08 35.9542 -78.8499 3958.7 512.607 3643.69)
(3420.33 -32.5334 -72.7703 3818.28 -383.589 3782.46)
(3401.43 -16.2672 -76.2134 3975.54 -334.442 3583.19)
(2891.23 3.90856 -77.3534 3513.98 -121.449 2910.99)
(2726.83 6.38164 -89.4608 3309.72 108.703 2749.9)
(3080.48 21.0255 -76.3906 3575 322.392 3270.52)
(3788.06 29.3588 -61.487 4225.1 429.668 4192.81)
(3324.92 -32.4217 -72.763 3737.55 -389.166 3651.15)
(3333.71 -16.3333 -76.2118 3925.83 -348.594 3482.42)
(2781.9 3.74251 -77.3819 3421.82 -117.149 2760.19)
(2599.59 6.38675 -89.3555 3198.52 102.837 2578.34)
(2990.75 20.9651 -76.3434 3501.13 335.136 3144.98)
(3745.65 29.3081 -61.4278 4199.26 445.848 4124.41)
(3283.24 -32.0378 -72.6765 3714.79 -403.799 3581.3)
(3253.55 -16.3092 -76.0118 3863.45 -359.581 3366.67)
(2677.02 3.70659 -77.1761 3334.92 -119.486 2614.02)
(2489.35 6.33549 -89.2606 3104.88 103.584 2427.01)
(2910.53 20.8824 -76.2721 3437.94 346.458 3029.9)
(3721.43 29.142 -61.3574 4194.01 463.792 4075.82)
(3254.83 -31.814 -72.6582 3709.46 -426.084 3523.5)
(3126.35 -16.4138 -75.9892 3753.07 -370.143 3194.36)
(2545.89 3.4347 -77.2046 3224.04 -130.063 2433.5)
(2387.2 6.3319 -89.0737 3021.69 111.713 2283.19)
(2815.49 20.7736 -76.1859 3359.78 357.562 2896.87)
(3702.5 29.0398 -61.2558 4197.43 484.994 4030.34)
(3230.31 -31.7018 -72.7033 3712 -449.811 3466.47)
(2992.41 -16.5909 -76.0858 3636.49 -381.175 3013.31)
(2413.79 3.04516 -77.3707 3113.75 -138.434 2250.23)
(2273.61 6.35082 -88.8454 2928.76 118.468 2123.72)
(2706.82 20.6565 -76.0909 3268.57 369.009 2746.59)
(3685.69 28.9644 -61.1523 4206.91 508.19 3983.5)
(3238.36 -31.7063 -72.8164 3752.68 -484.779 3443.69)
(2832.93 -16.838 -76.302 3493.44 -385.801 2801.96)
(2286.09 2.55367 -77.6677 3009.82 -144.666 2070.37)
(2115.76 6.3837 -88.5931 2793.8 128.919 1907.88)
(2532.96 20.5339 -75.9915 3111.65 375.926 2517.14)
(3645.04 28.9062 -61.0583 4197.88 535.324 3902.21)
(3461.08 -29.0847 -70.9327 3863.3 -387.089 3827.99)
(3526.89 -22.5189 -75.1131 4127.91 -340.725 3709.63)
(2975.06 -11.7888 -73.1313 3616.56 -121.688 2994.69)
(2802.52 3.38767 -67.689 3399.74 120.971 2828.07)
(3196.93 11.7174 -55.9692 3708.5 336.767 3395.79)
(3864.82 15.9768 -43.0116 4310.6 440.421 4277.89)
(3362.09 -28.9942 -70.9163 3779.04 -392.615 3692.27)
(3443.8 -22.4724 -75.0329 4063.27 -355.348 3589.62)
(2857.16 -11.7046 -73.0715 3516.58 -119.777 2832.65)
(2666.52 3.35787 -67.6999 3280.44 117.254 2645.16)
(3091.9 11.7336 -55.9912 3619.47 350.075 3251.42)
(3813.38 16.02 -43.0439 4276.5 458.965 4197.68)
(3321.85 -28.989 -70.9976 3757.64 -407.122 3624.24)
(3362.39 -22.5611 -75.0688 3999.9 -366.338 3472.08)
(2755.05 -11.6837 -73.1252 3433.52 -122.57 2688.8)
(2556.12 3.27179 -67.7507 3187.57 118.885 2492.7)
(3007.26 11.7472 -56.0335 3552.17 361.822 3130.63)
(3788.68 16.1359 -43.0809 4271.26 477.97 4148.03)
(3305.98 -28.841 -70.9699 3764.87 -428.113 3581.75)
(3254.91 -22.492 -74.9379 3909.43 -374.864 3323.69)
(2643.13 -11.5502 -73.031 3342.72 -131.738 2530.9)
(2456.36 3.21471 -67.7699 3107.54 127.273 2351.03)
(2910 11.7734 -56.0724 3472.13 372.923 2994.52)
(3770.66 16.2152 -43.1346 4276 499.414 4103.23)
(3292.2 -28.615 -70.8597 3778.34 -450.953 3537.66)
(3133.6 -22.3375 -74.7148 3805.72 -384.613 3157.83)
(2522.91 -11.3616 -72.8611 3245.1 -139.456 2361.37)
(2344.38 3.18086 -67.7649 3016.93 134.483 2192.81)
(2798.34 11.8073 -56.1106 3378.32 384.662 2840.21)
(3753.28 16.2769 -43.2046 4285.33 523.201 4055.28)
(3296.81 -28.324 -70.6746 3816.28 -488.477 3509.97)
(2973.72 -22.1043 -74.4098 3662.79 -391.555 2945.47)
(2392.64 -11.1232 -72.6229 3139.11 -144.899 2177.85)
(2203.7 3.17329 -67.7391 2899.67 142.666 1997.45)
(2653.73 11.8506 -56.1511 3251.33 392.219 2645.85)
(3742.56 16.3232 -43.2958 4306.36 549.746 4010.44)
(3498.17 -7.77209 -55.8825 3903.7 -391.276 3870)
(3539.65 -11.0826 -53.3991 4141.15 -341.988 3724.75)
(3060.63 -7.40389 -50.5959 3721.6 -120.226 3079.81)
(2905.56 3.15305 -51.0944 3523.11 121.836 2933.68)
(3249.88 9.27364 -44.1696 3763.47 345.729 3458.49)
(3958.06 8.86761 -35.753 4404.52 451.231 4391.17)
(3397.37 -7.86586 -55.8831 3817.65 -396.706 3732.07)
(3474.78 -11.0909 -53.4437 4095.22 -357.155 3626.52)
(2952.58 -7.4278 -50.6448 3631.67 -115.785 2929.63)
(2779.75 3.12288 -51.0661 3414.2 115.433 2763.02)
(3162.93 9.23987 -44.1383 3693.01 359.107 3335.72)
(3922.17 8.8376 -35.7056 4385.69 469.198 4330.24)
(3357.01 -7.94548 -55.9399 3796.15 -411.187 3663.86)
(3400.83 -11.0328 -53.4599 4039.92 -368.333 3517.48)
(2853.78 -7.40661 -50.6563 3551.98 -117.93 2789.74)
(2674.45 3.0527 -51.0261 3326.47 116.347 2616.75)
(3088.61 9.17726 -44.0869 3636.61 371.214 3226.96)
(3904.05 8.78576 -35.6285 4386.92 488.169 4288.75)
(3345.87 -8.11066 -55.9472 3808.12 -432.262 3627.14)
(3293.46 -11.0365 -53.5367 3950.12 -377.238 3368.68)
(2740.43 -7.43151 -50.7416 3460 -127.544 2629.85)
(2582.86 2.99331 -50.9762 3254.83 125.418 2484.85)
(3000.91 9.1149 -44.0287 3566.69 383.243 3102)
(3889.38 8.73266 -35.546 4394.84 509.718 4248.23)
(3336.86 -8.32202 -55.9261 3826.39 -455.289 3588.85)
(3174.63 -11.0751 -53.6381 3849.4 -387.213 3205.32)
(2621.61 -7.47621 -50.8612 3364.09 -135.303 2461.72)
(2478.37 2.94105 -50.9246 3171.99 132.956 2335.49)
(2898.5 9.05626 -43.9679 3482.61 395.628 2958.49)
(3875.5 8.69579 -35.4642 4407.53 533.595 4204.69)
(3338.89 -8.57413 -55.8772 3861.83 -492.93 3557.92)
(3000.57 -11.1497 -53.7592 3692.55 -393.327 2975.38)
(2487.04 -7.54217 -51.0097 3254.37 -143.097 2272.39)
(2322.73 2.89769 -50.8756 3040.3 144.024 2121.33)
(2733.11 9.00628 -43.907 3335.02 403.181 2738.57)
(3847.09 8.68816 -35.3848 4410.96 561.144 4138.12)
(3418.96 -7.5147 -39.1275 3814.53 -383.408 3783.15)
(3512.76 -12.7776 -42.6614 4114.27 -336.897 3691.86)
(3078.06 -15.2882 -38.4544 3744.42 -121.357 3095.7)
(2947.43 2.08041 -35.6303 3573.56 127.756 2976.28)
(3300.33 7.77753 -30.1086 3821.99 351.33 3512.08)
(3925.59 9.3799 -22.4719 4363.9 449.436 4359.62)
(3315.84 -7.55823 -39.1843 3726.44 -389.913 3642.1)
(3427.19 -12.6617 -42.6825 4047.12 -350.815 3568.86)
(2960.65 -15.0847 -38.5262 3645.6 -118.93 2933.62)
(2817.72 2.05381 -35.6597 3461.32 123.565 2800.28)
(3202.15 7.76929 -30.118 3740.18 364.524 3375.72)
(3879.11 9.35369 -22.5046 4333.91 467.486 4286.33)
(3275.65 -7.79422 -39.1803 3705.35 -404.963 3573.88)
(3344.25 -12.4669 -42.7972 3982.41 -361.549 3449.25)
(2858.43 -14.8072 -38.6842 3562.93 -121.485 2789.13)
(2712.11 2.00488 -35.7118 3373.96 125.205 2652.96)
(3122.89 7.74518 -30.1536 3678.68 376.577 3261.08)
(3856.48 9.28922 -22.5481 4330.21 486.429 4239.75)
(3269.73 -7.8951 -39.2695 3722.84 -427.059 3543.22)
(3233.93 -12.2565 -42.844 3889.44 -370.707 3297.08)
(2742.83 -14.4467 -38.8183 3469.06 -130.921 2626.12)
(2617.82 1.95926 -35.7665 3300.22 134.165 2517.15)
(3030.23 7.72752 -30.174 3603.66 388.283 3130.19)
(3838.25 9.23746 -22.6085 4334.23 508.07 4195.22)
(3264.1 -7.92057 -39.3969 3744.75 -450.975 3508.81)
(3112.04 -12.047 -42.8498 3785.51 -380.96 3130.14)
(2621.56 -14.0571 -38.9308 3371.09 -138.718 2454.59)
(2510.95 1.91916 -35.8207 3215.61 141.885 2364.29)
(2923.25 7.71631 -30.1878 3514.94 400.65 2981.16)
(3821.55 9.20184 -22.6773 4343.83 532.397 4148.51)
(3265.66 -7.87665 -39.5546 3779.26 -486.531 3477.76)
(2961.9 -11.8399 -42.8233 3652.88 -388.02 2929.11)
(2504.54 -13.6505 -39.0219 3279.21 -144.088 2286.43)
(2371.31 1.88985 -35.8756 3100.36 151.015 2169.23)
(2778.68 7.71399 -30.198 3388.5 409.324 2786.34)
(3807.06 9.19124 -22.7517 4360.83 559.484 4099.31)
(3434.35 -1.88986 -30.5557 3829.08 -386.647 3802.8)
(3488.99 1.55498 -36.8124 4077.81 -338.194 3675.51)
(3150.96 -1.12576 -33.5777 3835.14 -113.71 3166.98)
(3076.5 5.33985 -27.6573 3729.84 129.452 3106.82)
(3346.79 9.4353 -20.7198 3870.84 358.994 3566.46)
(4006.66 16.2276 -12.6968 4450.88 458.418 4452.81)
(3339.59 -1.95376 -30.6047 3749.95 -395.077 3671.36)
(3412.6 1.48638 -36.7633 4019.97 -351.271 3563.6)
(3031.9 -1.11447 -33.5546 3734.61 -106.523 3002.96)
(2950.66 5.35068 -27.6565 3621.62 122.856 2935.41)
(3260.65 9.45261 -20.7255 3801.61 372.545 3444.26)
(3967.19 16.1978 -12.7528 4427.94 475.761 4388.03)
(3301.61 -2.14798 -30.5922 3731.45 -410.602 3605.47)
(3339.18 1.6618 -36.7759 3965.6 -362.039 3454.81)
(2929.27 -0.862848 -33.5761 3651.29 -107.322 2858.2)
(2846.98 5.38603 -27.6403 3536.11 123.943 2790.52)
(3189 9.47974 -20.7325 3748.3 384.987 3338.37)
(3947.76 16.2199 -12.7987 4427.52 494.609 4345.27)
(3280.81 -2.28027 -30.6628 3733.56 -429.831 3557.13)
(3245.1 1.56661 -36.693 3889.81 -371.634 3321.53)
(2820.57 -0.816791 -33.5392 3564.18 -116.2 2703.75)
(2758.39 5.40361 -27.6381 3468.02 133.428 2661.74)
(3106.63 9.50924 -20.7452 3684.12 397.579 3219.51)
(3931.04 16.1713 -12.8976 4433.07 516.413 4302.57)
(3267.83 -2.40019 -30.7603 3747.75 -452.007 3514.1)
(3134.38 1.33345 -36.5604 3797.76 -381.871 3167.52)
(2705.31 -0.871932 -33.4707 3472.15 -123.345 2539.64)
(2656.53 5.40161 -27.6404 3388.37 141.412 2515.03)
(3008.25 9.53173 -20.7656 3604.52 410.523 3080.48)
(3915.74 16.0716 -13.0291 4444.08 540.676 4257.56)
(3283.57 -2.50965 -30.8783 3796.62 -489.487 3500.2)
(2960.2 0.975798 -36.3871 3641.18 -389.536 2937.04)
(2582.34 -1.0286 -33.3726 3374.59 -134.562 2363.93)
(2508.19 5.37993 -27.6474 3264.59 153.301 2309.17)
(2847.09 9.54349 -20.7956 3461.6 418.614 2865.27)
(3896.99 15.9144 -13.195 4457.14 569.022 4202.84)
(3439.46 -9.94734 -25.6269 3838.99 -387.01 3804.25)
(3531.02 -8.64819 -24.8449 4131.68 -340.335 3715.02)
(3108.44 -6.82109 -21.8626 3783.6 -114.012 3124.06)
(3048.17 8.8753 -21.4651 3693.66 137.433 3080.06)
(3416.28 8.48908 -16.4345 3952.42 366.519 3639.31)
(4032.78 9.88634 -14.5173 4483.93 461.789 4477.8)
(3343.59 -9.94343 -25.6014 3759.09 -396.037 3671.11)
(3443.02 -8.71718 -24.82 4061.88 -352.692 3589.27)
(2989.83 -6.86077 -21.8583 3683.87 -109.298 2960.21)
(2922.08 8.8021 -21.4541 3585.58 133.751 2907.94)
(3319.75 8.50309 -16.4503 3872.58 380.317 3504.65)
(3990.88 9.88163 -14.517 4459.62 480.921 4409.01)
(3307.42 -9.87876 -25.6038 3742.86 -412.17 3606.96)
(3365.49 -9.06455 -24.7321 4003.25 -363.763 3475.61)
(2887.32 -7.21375 -21.7735 3600.87 -111.147 2815.39)
(2818.12 8.76384 -21.4771 3500.12 135.714 2762.36)
(3243.15 8.55126 -16.4866 3814.17 392.851 3392.84)
(3971.57 9.83141 -14.5489 4459.94 500.414 4365.76)
(3292.91 -9.86038 -25.561 3751.58 -433.428 3566)
(3270.92 -9.21242 -24.6815 3926.87 -376.464 3341.84)
(2779.17 -7.3148 -21.7581 3514.78 -122.61 2661.15)
(2725.66 8.63603 -21.4594 3428.74 144.555 2628.28)
(3153.21 8.57526 -16.5159 3742.31 404.892 3264.82)
(3952.18 9.81682 -14.5503 4463.37 521.662 4319.26)
(3284.54 -9.83909 -25.4929 3770.58 -457.386 3528.39)
(3158.56 -9.23768 -24.6536 3832.95 -388.837 3186.08)
(2664.65 -7.27367 -21.7827 3424.14 -131.613 2497.32)
(2621.99 8.46042 -21.4206 3348.01 152.19 2478.65)
(3047.81 8.58266 -16.5367 3655.56 417.464 3117.36)
(3934.38 9.81441 -14.5337 4472.42 545.61 4270.65)
(3297.21 -9.81149 -25.4018 3815.97 -492.047 3511.15)
(2993.86 -9.15008 -24.647 3685.54 -393.35 2967.47)
(2547.08 -7.10522 -21.8434 3332.63 -136.777 2327.55)
(2487.11 8.2494 -21.3649 3238.4 161.906 2288.51)
(2906.43 8.57209 -16.5478 3532.41 426.159 2926.33)
(3939.73 9.82057 -14.4979 4510.04 574.662 4244.92)
(3465.31 -13.9288 -13.3761 3866.86 -389.709 3833.82)
(3491.5 -12.9421 -14.2127 4082.32 -336.726 3676.57)
(3264.84 -9.79715 -13.3136 3975.81 -111.889 3279.38)
(3196.26 6.16124 -14.4752 3873.62 133.589 3229.17)
(3372.14 5.90594 -11.3005 3896.53 365.57 3597.12)
(4037.33 4.74478 -11.2116 4485.21 461.817 4486.64)
(3366.98 -13.8519 -13.3799 3783.49 -397.338 3698.68)
(3424.6 -12.9016 -14.1848 4034.41 -353.073 3575.82)
(3156.26 -9.74717 -13.2871 3886.52 -107.729 3127.39)
(3072.24 6.07132 -14.4537 3767.92 126.791 3059.28)
(3284.95 5.86526 -11.3032 3826.5 379.788 3473.38)
(3995.14 4.69873 -11.1856 4459.63 478.665 4418.45)
(3326.21 -13.7357 -13.3902 3761.53 -412.452 3630.04)
(3350.75 -13.1234 -14.1094 3979.15 -364.301 3466.96)
(3060.81 -9.96984 -13.1918 3811.7 -109.195 2990.11)
(2974.95 5.98725 -14.4331 3690.1 127.607 2920.89)
(3212.85 5.82448 -11.2995 3772.7 392.462 3366.97)
(3976.34 4.57151 -11.1731 4459.96 497.526 4376.35)
(3310 -13.5931 -13.3963 3768.05 -431.998 3587.5)
(3250.47 -13.0878 -14.0533 3896.8 -370.851 3326.48)
(2947.58 -9.92154 -13.138 3720.93 -114.578 2829.25)
(2895.54 5.83384 -14.3936 3632.1 136.003 2802.43)
(3132.87 5.75526 -11.303 3711.05 404.82 3250.9)
(3965.73 4.4822 -11.13 4471.97 520.033 4340.77)
(3300.68 -13.4098 -13.3983 3785.65 -453.916 3549.18)
(3137.1 -12.9066 -14.0139 3802.1 -379.187 3169.25)
(2829.76 -9.72982 -13.1125 3627 -119.5 2661.36)
(2800.28 5.64389 -14.3428 3559.8 143.307 2663.06)
(3037.55 5.66885 -11.3042 3634.77 417.655 3115.34)
(3955.29 4.41666 -11.0698 4488.13 544.645 4301.41)
(3311.37 -13.1864 -13.3973 3829.51 -491.648 3529.08)
(2961.06 -12.5865 -13.9921 3643.96 -386.872 2936.17)
(2710.88 -9.40377 -13.114 3534.03 -131.391 2490.16)
(2651.4 5.42872 -14.2837 3436.15 157.261 2455.85)
(2880.59 5.56655 -11.3009 3496.35 426.064 2904.96)
(3936.62 4.3788 -10.9896 4501.43 573.296 4246.62)
(3475.3 3.22698 -2.44146 3880.86 -390.567 3842.03)
(3548.52 8.4069 -3.1438 4152.87 -340.45 3732.74)
(3226.6 5.96314 -2.89408 3928.29 -114.852 3241.92)
(3154.65 -4.02726 -5.91346 3821.97 138.812 3188.35)
(3416.03 -4.60297 -3.46253 3949.33 369.282 3641.85)
(4014.72 -0.231217 0.859461 4461.24 459.704 4460.35)
(3375.15 3.18467 -2.44455 3795.98 -398.212 3704.36)
(3469.56 8.25988 -3.11795 4092.57 -355.278 3617.57)
(3118.98 5.83899 -2.88059 3840.17 -112.439 3090.89)
(3032.21 -3.94732 -5.90296 3718.05 134.58 3020.18)
(3320.34 -4.53169 -3.46372 3870.45 383.026 3508.07)
(3970.08 -0.249138 0.828484 4433.69 477.306 4388.72)
(3335.6 3.18219 -2.46695 3775.69 -413.643 3636.75)
(3392.22 8.25501 -3.10107 4033.76 -366.501 3504.51)
(3023.74 5.85523 -2.86766 3765.59 -114.736 2953.83)
(2933.98 -3.78058 -5.92569 3639.34 136.168 2880.62)
(3243.17 -4.40895 -3.49659 3811.3 395.476 3395.74)
(3949.82 -0.244624 0.803254 4432.77 496.302 4344.61)
(3321.48 3.10516 -2.47495 3784.57 -434.465 3596.5)
(3292.44 8.01335 -3.05902 3951.82 -375.579 3364.71)
(2912.05 5.6574 -2.84679 3676.61 -122.673 2794.62)
(2847.38 -3.63432 -5.90814 3574.38 144.046 2753.12)
(3153.33 -4.28286 -3.50174 3739.49 407.17 3267.91)
(3933.79 -0.276572 0.745182 4439.52 518.148 4302.23)
(3313.2 2.96467 -2.47919 3803.43 -457.519 3559.24)
(3177.34 7.64743 -3.01195 3855.14 -385.535 3205.61)
(2794.89 5.35475 -2.82964 3583.71 -129.386 2627.16)
(2747.88 -3.50426 -5.86545 3498.19 151.013 2608.21)
(3049.67 -4.15866 -3.49211 3654.56 419.481 3122.49)
(3918.97 -0.330064 0.660794 4451.53 542.416 4257.3)