/*--------------------------------*- C++ -*----------------------------------*\
  =========                 |
  \\      /  F ield         | OpenFOAM: The Open Source CFD Toolbox
   \\    /   O peration     | Website:  https://openfoam.org
    \\  /    A nd           | Version:  13
     \\/     M anipulation  |
\*---------------------------------------------------------------------------*/
FoamFile
{
    format      ascii;
    class       volScalarField;
    location    "1";
    object      sigmaEq;
}
// * * * * * * * * * * * * * * * * * * * * * * * * * * * * * * * * * * * * * //

dimensions      [1 -1 -2 0 0 0 0];

internalField   nonuniform List<scalar> 
17280
(
859.454
912.282
974.229
976.61
917.15
828.384
861.342
917.391
980.748
982.591
921.563
832.343
869.01
927.242
992.566
993.772
931.015
841.595
888.535
947.179
1015.25
1015.87
950.758
860.971
917.288
976.448
1046.83
1046.94
979.519
890.637
955.792
1015.21
1087.65
1087.42
1018.34
933.941
809.205
834.898
868.146
857.934
823.311
822.31
809.558
846.016
878.25
865.884
829.318
834.882
817.716
856.648
890.784
876.816
837.965
848.54
834.29
866.239
904.487
889.178
847.735
863.413
854.467
879.307
920.976
904.199
859.885
884.031
880.768
892.235
938.406
920.842
871.229
902.654
731.823
721.323
724.434
698.114
701.688
771.043
731.249
734.418
738.129
710.644
712.111
781.477
743.082
746.984
756.034
726.841
724.206
796.957
767.98
759.896
779.375
747.867
738.886
818.047
796.748
777.631
806.183
772.783
756.784
844.768
839.467
808.798
846.9
812.255
784.244
888.409
690.884
669.64
638.752
597.036
628.824
752.298
697.441
696.847
666.045
621.99
649.589
774.671
716.74
719.82
695.645
649.505
670.846
799.35
749.394
740.87
729.236
681.118
694.357
829.625
787.301
768.201
767.627
717.956
722.504
866.931
833.671
794.482
807.977
759.102
747.711
904.843
714.025
686.867
651.765
602.042
642.598
781.656
719.745
711.959
677.418
627.043
664.725
799.97
740.38
734.087
707.898
656.391
687.411
822.938
775.315
754.612
744.108
691.483
712.322
850.982
814.647
780.709
784.381
731.248
740.914
886.106
865.007
814.68
837.601
785.411
773.754
935.683
709.863
683.803
653.08
599.773
633.137
782.763
720.437
716.879
688.126
633.129
660.689
807.388
744.209
743.913
725.465
669.557
688.4
835.33
780.211
765.809
766.476
711.079
718.36
869.439
821.38
795.781
812.523
757.614
753.005
910.908
873.623
830.984
862.588
809.195
785.07
956.389
764.879
754.748
655.559
608.838
663.488
814.587
774.392
782.778
685.834
639.306
690.956
837.544
799.103
811.405
720.858
673.961
719.163
864.76
833.669
843.471
763.162
716.072
750.057
898.187
874.549
877.791
809.502
762.849
784.854
938.777
934.613
909.746
867.342
821.124
820.573
988.357
761.526
758.453
647.932
625.313
693.838
829.233
772.437
792.746
684.804
660.041
724.819
856.64
797.802
824.153
724.181
698.394
756.053
886.897
830.282
852.279
767.244
743.7
789.22
921.545
869.994
885.628
815.738
793.518
826.631
964.37
937.107
925.284
876.5
848.96
860.797
1014.76
778.38
782.345
661.924
621.636
719.255
863.542
784.517
816.974
695.003
653.99
749.208
887.496
809.032
849.592
734.161
690.907
779.944
916.844
848.671
885.403
785.748
735.359
812.919
953.742
894.374
925.143
840.63
784.724
849.681
996.819
961.785
960.484
898.525
847.02
887.038
1050.24
784.838
807.166
678.378
632.258
741.324
879.452
790.725
843.737
714.893
667.454
772.721
906.898
815.148
877.25
755.763
706.397
804.671
938.252
852.953
909.973
805.608
752.414
838.267
975.976
897.134
947.665
859.636
803.308
876.13
1020.4
968.388
986.457
918.08
863.311
912.842
1073.17
787.889
802.816
689.762
645.899
751.562
899.135
793.518
839.903
724.81
679.15
782.447
925.594
817.959
873.752
765.435
717.31
814.32
956.223
856.104
907.39
816.258
762.901
848.423
993.143
900.688
945.702
870.868
813.307
886.2
1036.56
972.334
984.915
932.193
877.502
923.432
1089.58
768.647
795.369
694.203
653.912
761.384
893.32
775.853
831.698
732.101
689.485
792.307
919.175
801.376
865.671
774.183
729.079
824.338
949.406
841.51
900.284
826.043
776.109
858.311
986.188
887.844
939.703
881.866
828.037
896.47
1030.07
956.479
979.182
940.246
889.921
934.249
1082.17
772.937
786.681
706.806
678.691
771.983
910.993
783.198
821.106
743.233
712.958
803.092
935.852
809.372
854.761
784.61
751.977
835.336
965.75
844.59
889.154
835.079
798.307
869.953
1002.44
888.013
927.728
889.693
849.436
908.206
1045.78
959.522
969.141
951.875
913.877
945.553
1099.38
773.661
796.044
697.214
674.811
788.447
917.324
785.254
830.137
735.21
710.697
820.084
945.162
812.904
864.691
777.364
750.422
852.654
976.5
851.78
903.347
829.786
797.848
886.904
1012.78
898.346
944.806
886.257
850.172
925.094
1056.23
965.64
981.64
946.277
912.858
962.115
1111.74
778.336
784.371
730.57
701.349
780.408
917.336
787.462
823.165
768.647
736.293
812.369
941.343
813.024
857.103
811.488
776.277
844.669
971.327
848.922
887.743
862.425
822.184
878.688
1009.36
891.984
924.289
917.522
873.063
916.543
1053.39
963.99
966.46
980.081
939.377
953.843
1107.45
779.689
797.368
722.195
694.206
790.05
912.674
789.114
834.71
761.067
730.247
821.473
937.853
815.592
869.107
804.185
770.574
853.622
968.186
853.847
903.187
856.382
817.518
887.134
1005.29
899.031
941.899
912.694
869.379
924.732
1049.07
969.4
981.41
973.691
933.735
962.808
1105.21
786.949
789.676
716.556
688.053
794.331
926.82
796.315
828.773
754.159
723.701
827.829
951.439
822.652
863.432
796.904
763.629
860.6
981.638
860.602
897.282
849.088
808.715
894.225
1019.2
905.652
935.95
905.293
859.153
931.652
1062.84
975.715
973.704
967.323
925.938
966.727
1118.87
769.546
784.085
717.583
689.171
795.045
906.839
779.533
821.292
756.236
725.432
825.976
930.313
806.059
855.256
799.464
765.77
857.774
959.739
844.008
888.88
852.947
812.31
890.968
996.589
889.284
927.825
910.234
863.965
928.215
1040.16
959.114
967.476
968.824
928.077
965.758
1097.99
774.74
773.086
707.325
684.448
773.81
890.478
785.849
807.758
744.901
720.18
807.165
913.313
813.1
841.39
787.056
759.888
839.972
942.591
851.459
876.404
837.502
805.489
874.487
979.8
897.216
915.566
892.487
856.341
912.928
1023.4
964.279
955.549
955.147
920.98
947.357
1077.51
778.645
799.017
711.378
674.925
763.677
868.075
790.023
834.761
749.875
711.341
794.355
890.27
817.639
869.79
793.088
751.28
825.747
918.86
856.055
909.079
848.216
798.322
859.229
955.172
902.925
951.443
906.838
850.651
896.934
998.26
971.142
984.752
964.305
913.766
933.309
1053.87
759.324
757.607
767.643
717.856
735.845
859.955
764.422
796.972
807.656
753.655
766.361
882.731
789.055
829.512
851.544
794.444
797.48
911.39
831.883
855.248
899.667
840.65
831.194
947.627
878.535
888.942
952.575
891.863
868.995
990.499
944.726
936.957
1017.68
957.002
904.379
1042.23
769.147
787.95
771.554
707.406
728.512
849.413
774.141
826.962
812.033
744.146
757.789
873.094
799.512
860.989
856.631
785.016
787.975
901.799
843.086
892.561
908.539
832.198
820.564
937.367
891.268
930.275
964.591
884.497
857.563
979.642
959.217
972.642
1026.98
948.354
893.766
1031.64
787.054
794.391
788.31
704.572
707.799
845.783
791.939
837.578
829.083
740.723
736.206
869.158
817.45
872.477
874.2
781.436
765.851
897.752
862.441
902.197
925.836
827.08
798.264
933.115
911.646
939.508
981.776
878.155
834.703
974.978
979.182
981.321
1044.71
944.022
869.999
1026.13
789.937
809.903
787.479
695.118
704.03
834.777
795.25
850.6
828.473
731.893
731.608
857.934
821.602
885.432
873.65
772.605
760.595
885.898
867.924
917.348
926.199
818.852
792.167
920.359
918.397
955.796
982.861
870.415
828.013
961.632
986.036
998.235
1045.16
935.043
863.912
1012.27
804.135
807.358
799.381
697.729
688.251
830.399
809.858
852.291
840.385
734.463
715.947
852.613
836.143
887.741
885.982
775.405
744.836
880.362
881.789
916.842
938.068
820.589
776.395
915.033
931.474
953.916
994.386
871.331
812.097
956.37
999.741
996.177
1057.49
936.786
846.811
1006.61
801.385
816.995
792.827
683.582
692.233
835.041
807.32
858.651
833.888
720.242
718.893
858.53
834.346
893.663
879.232
760.788
747.225
886.684
881.401
924.611
931.753
806.205
778.206
921.117
932.374
962.559
988.264
857.051
813.329
962.168
1000.86
1006.13
1050.02
922.004
849.148
1012.8
820.915
819.426
775.156
663.979
682.883
842.841
827.386
866.283
816.049
700.894
711.789
866.77
854.842
902.442
861.476
741.631
740.786
895.494
902.879
931.835
913.223
786.386
772.026
930.72
954.881
969.255
969.381
836.869
807.482
972.421
1022.67
1008.7
1031.72
901.147
839.69
1022.7
815.367
827.493
764.553
642.748
681.355
842.552
822.707
871.418
805.721
678.83
707.708
865.297
851.356
907.575
851.201
718.716
735.464
893.289
901.692
940.158
905.091
763.483
765.821
928.104
956.007
979.737
962.514
813.91
800.286
969.254
1023.54
1018.76
1019.85
878.18
835.601
1019.85
853.743
844.471
740.262
633.329
676.249
853.229
863.279
897.242
784.24
669.782
706.492
878.828
892.953
935.227
830.367
710.549
735.906
907.878
942.455
961.69
878.357
756.267
767.572
942.647
996.254
996.242
931.442
807.453
803.614
984.662
1061.83
1028.41
992.554
869.944
834.074
1031.53
831.454
824.382
755.476
665.576
698.536
862.04
843
873.452
799.627
700.705
726.863
886.989
872.433
908.662
845.326
741.355
756.233
915.867
919.746
929.374
891.665
787.48
788.242
950.553
971.285
960.975
943.554
838.455
824.451
992.549
1036.48
1004.98
1004.83
901.196
860.239
1041.73
856.179
867.423
708.295
650.186
748.023
893.987
869.592
907.108
746.407
686.486
781.087
917.933
900.809
945.508
789.151
725.847
813.316
947.705
943.397
989.109
843.06
772.663
847.628
985.146
993.049
1033.86
900.5
824.891
886.051
1029.14
1064.28
1063.6
958.805
885.471
918.943
1082.61
836.419
867.263
726.777
685.103
790.203
923.173
848.554
907.586
765.69
720.403
822.938
950.864
877.123
943.27
808.079
760.431
856.267
982.449
911.786
971.526
854.249
807.545
891.521
1019.84
954.292
1006.11
905.846
859.101
930.699
1064.28
1035.43
1054.25
972.185
920.622
967.988
1119.49
840.454
873.597
695.964
640.991
824.659
947.744
848.672
913.274
731.46
676.4
859.852
972.643
877.4
950.945
773.811
715.373
894.586
1004.22
925.702
994.278
833.877
762.272
930.598
1044.86
980.238
1040.91
896.233
814.656
970.553
1091.53
1049.02
1073.16
949.135
877.82
1006.62
1148.77
848.608
899.197
718.75
663.245
860.073
973.825
855.046
939.203
755.334
698.617
895.841
1003.04
881.67
975.397
797.381
738.108
931.62
1036.39
923.763
1009.35
851.254
785.011
968.007
1076.4
972.297
1048.8
908.686
836.891
1008.37
1123.27
1048.19
1090.69
966.794
900.621
1046.99
1181.02
849.257
894.232
727.198
686.27
894.52
996.119
855.666
934.87
762.932
721.999
932.6
1021.74
882.451
972.146
805.213
761.916
969.713
1054.81
924.176
1008.73
861.708
809.656
1007.25
1097.86
972.193
1049.84
920.927
862.394
1048.68
1146.26
1049.39
1090.94
979.136
927.041
1086.83
1208.9
841.533
890.455
731.857
705.802
919.974
1001.73
849.602
930.112
769.315
742.671
958.54
1030.21
877.105
966.515
811.934
783.555
996.362
1063.79
918.784
1000.08
865.403
831.565
1033.31
1104.2
966.334
1039.03
922.656
884.326
1074.31
1151.53
1041.49
1084.9
984.146
949.27
1114.99
1215.88
844.092
879.688
741.398
711.778
925.42
1002.59
856.487
918.093
775.605
748.828
964.08
1024.49
885.468
956.061
818.119
789.294
1001.31
1056.7
923.894
997.252
879.416
836.24
1037.5
1102.74
970.346
1042.34
942.655
888.594
1078.18
1153.33
1045.11
1083.72
998.411
955.499
1119.17
1216.29
853.484
898.615
744.126
711.963
928.675
1004.77
866.062
936.341
779.478
749.933
966.389
1030.34
895.297
973.971
822.003
790.759
1003.39
1063.58
934.163
1013.91
880.928
837.419
1038.98
1108.48
980.629
1057.5
942.418
889.402
1079.34
1158.62
1054.36
1100.29
1000.46
956.276
1122.55
1219.29
857.379
896.651
769.26
719.524
926.456
1008.92
865.352
938.476
804.884
756.763
965.993
1035.47
892.429
976.395
848.172
797.705
1004.57
1068.86
932.515
1012.96
907.68
844.032
1042.33
1111.03
979.023
1055.09
969.6
895.924
1084.05
1159.44
1056.09
1099.3
1027.57
965.208
1124.52
1223.37
861.227
916.84
771.036
714.59
929.824
1010.81
868.701
957.3
807.685
752.722
968.545
1040.23
895.933
995.259
851.354
793.923
1006.77
1074.9
937.015
1033.29
911.264
840.567
1044.27
1118.06
984.539
1076.15
973.561
892.798
1086.04
1167.5
1061.76
1119.96
1030.52
961.342
1127.89
1228.66
873.066
916.963
773.55
721.703
932.284
1015.8
880.657
959.945
809.135
759.272
972.132
1042.21
907.846
998.874
852.543
800.34
1010.81
1076.1
947.776
1037.11
912.413
846.492
1048.73
1120.29
994.728
1080.32
974.81
898.364
1090.7
1169.86
1073.49
1121.89
1033.52
968.419
1131.46
1234.11
855.105
908.569
775.9
729.772
942.261
1005.57
863.943
948.845
813.004
768.471
981.68
1033.77
891.737
986.931
857.161
810.342
1020.34
1067.73
933
1026.63
918.928
858.048
1057.76
1109.88
981.279
1071.3
982.877
911.377
1099.46
1158.69
1057.52
1113.73
1037.38
979.553
1141.43
1223.89
865.31
898.091
767.087
754.447
930.503
989.756
877.834
937.182
802.902
792.39
970.436
1011.54
906.85
975.279
845.551
834.098
1008.68
1043.95
944.208
1013.83
901.469
882.165
1045.58
1090.06
989.502
1056.26
960.886
935.301
1087.19
1140.78
1064.71
1100.39
1024.43
1002.77
1129.75
1205.72
849.601
904.583
765.594
748.324
925.943
982.165
861.884
942.512
802.663
786.966
964.21
1006.79
890.84
980.759
846.406
828.974
1001.79
1040.14
928.195
1022.14
906.702
878.555
1038.8
1086.69
974.173
1067.18
969.513
933.222
1080.77
1138.09
1051.83
1109.79
1026.46
998.341
1124.42
1199.1
855.389
900.94
759.687
747.527
921.89
986.842
863.657
943.227
797.832
784.231
962.081
1013.43
891.371
981.321
841.123
825.964
1001.25
1046.81
933.864
1016.81
894.627
876.03
1040.06
1088.16
982.459
1057.48
952.182
930.681
1082.91
1136.25
1056.88
1101.18
1016.38
996.544
1123.23
1202.71
843.731
911.588
756.003
738.953
921.117
987.111
850.62
951.783
794.635
776.481
960.064
1015.97
877.866
989.69
838.523
818.296
998.593
1050.46
919.848
1027.01
894.771
869.16
1037.5
1093.71
968.376
1069.01
954.45
924.626
1080.68
1143.26
1047.05
1113.46
1015.34
988.377
1121.71
1205.38
849.327
902.363
757.272
741.123
916.208
986.313
856.212
945.452
795.77
777.686
955.951
1011.99
883.444
984.141
839.708
819.26
994.611
1045.51
925.731
1021.01
895.515
869.48
1033.36
1089.17
974.592
1063.19
954.988
924.379
1076.25
1138.51
1052.18
1105.35
1016.57
989.763
1116.33
1203.74
839.236
894.279
751.967
742.948
922.627
978.524
847.541
933.929
790.935
780.882
961.859
1005.94
875.943
971.597
834.825
822.93
1000.28
1039.41
920.96
1010.37
890.946
873.624
1038.34
1081.2
971.709
1053.5
950.729
928.98
1080.65
1129.65
1044.57
1096.03
1011.89
993.361
1121.58
1194.6
839.469
868.649
780.296
778.056
909.205
964.937
852.545
908.569
818.562
815.972
948.621
986.406
881.557
946.385
862.663
858.378
986.453
1018.34
917.942
983.312
918.559
908.161
1023.69
1063.22
962.343
1025.46
978.219
962.727
1065.53
1113.1
1038.72
1071.42
1040.76
1028.49
1106.83
1178.65
846.524
883.084
770.534
765.571
901.916
961.924
861.193
921.587
809.333
804.489
939.687
986.127
892.013
960.091
853.689
846.849
976.599
1018.81
933.005
1003.11
911.987
896.634
1013.17
1063.75
981.31
1048.99
973.597
951.468
1054.57
1113.75
1051.48
1088.13
1034.5
1017.47
1097.23
1175.18
847.526
867.067
816.258
800.044
894.232
968.176
858.114
910.626
856.87
838.405
933.773
994.328
886.209
948.181
902.332
881.722
971.979
1027.14
924.667
980.477
956.177
931.521
1010.08
1067.87
969.249
1019.44
1014.28
986.209
1052.34
1115.41
1044.73
1066.18
1079.2
1053.9
1091.84
1180.36
851.286
885.528
812.23
791.018
895.374
973.137
862.073
927.368
853.126
829.97
933.322
1001.31
890.949
965.243
898.747
873.167
970.737
1035.06
931.876
1001.5
954.366
923.118
1008.45
1077.08
978.815
1042.99
1013.93
978.101
1050.48
1125.46
1052.16
1086.34
1077.56
1045.87
1091.84
1187.25
862.971
885.022
813.235
795.405
897.758
977.968
873.893
929.248
853.591
834.277
937.758
1003.86
902.73
968.165
899.215
877.573
975.881
1037.19
942.531
1005.43
955.409
927.198
1013.79
1080.36
988.81
1047.5
1015.38
982.028
1056.09
1129.24
1063.65
1087.74
1079.21
1050.5
1095.54
1193.42
845.428
876.232
817.444
806.729
912.583
974.21
856.349
917.266
858.021
845.828
950.983
1000.97
884.532
953.899
903.226
889.453
988.839
1034.08
922.32
985.379
956.357
939.452
1026.45
1075.44
966.565
1023.58
1013.96
994.207
1068.29
1123.33
1042.76
1073.33
1079.54
1061.46
1110.67
1188.93
855.46
880.99
773.42
766.155
912.096
967.914
870.198
920.914
811.43
805.072
952.336
990.143
900.947
960.447
855.799
847.434
990.347
1022.37
941.322
1005.52
915.923
896.56
1027.15
1067.42
989.47
1052.95
978.955
951.056
1068.79
1117.56
1060.37
1089.42
1038.13
1018.09
1109.34
1182.17
841.712
886.58
777.304
765.264
916.299
967.045
853.524
924.734
815.186
803.552
953.401
990.615
881.674
961.661
858.715
845.679
990.469
1023.32
915.34
995.611
912.987
894.489
1027.52
1068.93
957.387
1035.02
971.233
948.022
1069.18
1119.37
1038.79
1086
1034.73
1013.27
1113.04
1181.5
848.826
890.34
734.249
696.224
921.171
978.727
857.284
931.696
770.951
733.318
961.494
1005.83
885.866
970.516
814.584
774.052
1000.55
1039.23
933.377
1012.88
876.526
822.073
1038.87
1080.46
986.998
1059.45
940.689
875.592
1081.26
1128.68
1055.71
1096.54
994.539
941.947
1119.53
1193.75
843.234
905.381
735.564
694.446
928.401
985.249
849.66
945.912
772.958
731.071
966.22
1013.35
876.603
983.493
816.44
771.529
1004.41
1047.48
919.453
1019.55
874.812
819.416
1042.98
1090.3
968.784
1061.23
936.045
872.335
1085.39
1139.47
1045.89
1106.78
992.897
937.693
1126.46
1202.35
847.808
902.185
736.1
698.184
934.537
990.07
854.319
944.321
772.791
735.018
974.907
1016.23
881.509
983.137
816.434
775.615
1014.01
1050.14
924.157
1021.26
876.653
823.313
1052.53
1094.58
973.155
1064.28
939.068
876.258
1095.26
1144.62
1051.38
1107.77
995.256
941.814
1134.33
1209.25
842.374
900.652
737.295
707.245
948.478
987.496
850.512
940.956
774.8
744.315
987.232
1014.43
878.426
978.501
818.095
785.141
1025.87
1048
921.171
1013.87
875.078
832.924
1063.89
1090.39
969.785
1054.76
935.178
885.604
1105.86
1139.21
1045.92
1102.81
994.151
951.19
1147.56
1205.21
847.641
890.059
742.02
707.979
942.812
977.771
860.376
929.65
776.947
745.678
982.862
999.637
889.969
968.962
820.319
786.299
1021.43
1032.08
929.089
1011.39
884.113
832.845
1058.58
1078.11
976.281
1057.93
949.508
885.028
1100.32
1129.03
1052.74
1101.4
1002.91
951.381
1141
1194.35
857.061
909.15
738.832
700.811
940.928
980.171
870.332
948.039
774.405
738.436
978.55
1004.12
900.462
987.077
817.569
778.734
1016.01
1037.14
940.55
1029.12
879.623
824.769
1052.69
1083.38
988.347
1074.79
943.651
876.314
1093.92
1134.3
1063.57
1118.71
999.129
943.385
1137.11
1195.79
862.324
906.852
766.582
711.587
942.359
990.846
870.771
950.132
803.257
749.055
982.154
1017.25
898.701
989.391
847.428
789.894
1021.25
1050.56
939.794
1026.88
908.707
835.816
1059.56
1092.07
987.268
1070.2
972.217
887.456
1101.76
1140.39
1066.72
1116.5
1028.12
955.508
1140.72
1206.67
871.376
931.654
765.973
700.245
941.612
999.329
879.458
973.278
802.782
737.639
979.65
1027.68
907.774
1012.53
846.908
778.002
1017.71
1061.84
950.406
1052.34
908.949
823.598
1055.45
1104.73
999.457
1096.83
972.907
874.955
1097.16
1153.75
1078.72
1141.64
1028.17
943.777
1137.99
1215.83
887.626
931.463
772.213
707.584
932.538
995.903
895.944
976.245
808.659
744.935
971.722
1021.37
924.438
1016.48
852.826
785.603
1010.09
1054.81
966.579
1055.51
914.183
831.224
1048.08
1098.53
1015.6
1100.13
978.048
882.69
1090.04
1147.83
1095.99
1143.15
1034.82
951.435
1129.12
1212.64
882.212
934.441
776.173
706.621
932.179
991.118
892.706
976.695
813.409
744.466
970.211
1017.67
922.825
1016.76
858.111
785.268
1007.78
1050.64
968.649
1061.12
923.213
831.568
1044.44
1092.14
1021.05
1109.46
989.743
883.829
1085.13
1139.84
1095.67
1147.86
1041.46
953.483
1126.22
1203.95
886.121
907.913
811.714
771.67
911.955
976.47
899.562
949.304
849.369
809.972
949.762
997.823
929.601
987.823
893.453
852.012
986.576
1029.18
967.032
1022.75
948.451
899.378
1022.7
1072.87
1011.66
1063.47
1007.4
951.907
1063.3
1121.74
1089.89
1113.7
1072.6
1019.45
1104.2
1185.88
886.222
929.97
813.237
753.655
889.975
968.571
899.91
970.864
852.022
792.324
925.225
991.363
931.053
1011.01
897.68
833.985
960.198
1022.74
971.895
1056.12
961.326
881.897
994.872
1066.61
1020.55
1103.71
1026.78
935.483
1034.33
1115.07
1095.38
1140.49
1083.33
1004.64
1077.19
1173.31
854.039
859.193
881.253
814.487
861.239
959.238
862.165
903.536
923.009
852.589
896.899
985.027
890.104
938.743
969.511
895.945
932.762
1016.29
938.198
962.176
1021
945.095
969.587
1053.39
988.88
995.444
1076.88
999.123
1010.27
1097.82
1053.87
1051.08
1145.19
1068.08
1049.95
1159.77
853.409
882.697
882.499
793.784
841.34
951.738
859.638
924.482
924.264
832.207
874.448
977.714
887.398
960.29
971.383
874.874
908.27
1008.98
936.142
990.436
1027.85
923.782
943.578
1047.84
988.079
1027.8
1087.48
977.968
983.044
1092.75
1055.54
1077.51
1152.11
1047.48
1023.67
1149.01
864.552
881.166
897.554
786.06
802.526
932.941
870.249
928.255
940.334
823.313
834.324
958.67
897.86
965.057
988.157
865.752
867.336
989.3
948.564
992.319
1043.56
914.273
902.638
1026.07
1001.74
1028.82
1102.73
968.12
941.815
1069.62
1067.61
1077.21
1167.73
1038.04
980.966
1125.25
860.436
890.323
892.657
770.091
793.352
919.412
865.422
932.993
935.061
807.604
823.394
943.804
893.14
968.785
982.612
849.565
855.028
973.448
944.411
998.027
1038.97
897.798
889.134
1010.06
998.105
1035.17
1098.63
951.381
927.148
1053.05
1064.99
1085.45
1163.1
1020.83
966.537
1106.24
865.878
875.081
899.644
769.463
768.011
909.037
871.912
922.967
942.752
806.489
797.916
933.284
899.755
959.444
990.846
848.623
829.199
962.428
951.345
984.896
1045.69
896.37
862.886
997.494
1005.03
1020.16
1104.29
949.515
900.538
1039.46
1069.29
1069.13
1169.43
1018.93
938.745
1093.19
856.894
876.948
887.131
750.806
768.569
908.385
862.008
919.61
929.757
787.745
796.968
932.867
889.837
954.637
977.226
829.272
827.386
962.211
942.054
981.56
1032.39
876.887
860.756
997.868
996.17
1017.07
1090.94
929.829
897.805
1039.84
1061.4
1068.74
1155.03
998.588
936.007
1092.68
869.868
870.655
868.523
729.606
744.424
900.47
875.25
919.451
911.406
766.457
774.611
925.115
903.162
955.754
959.167
808.111
805.116
954.391
956.35
980.551
1013.27
855.003
837.422
989.691
1011.34
1015.33
1071.25
907.442
873.966
1031.55
1074.85
1061.86
1135.23
975.289
909.748
1084.04
857.525
868.472
846.269
700.783
738.744
892.192
862.407
912.306
888.995
737.034
766.21
914.863
890.749
947.647
936.388
777.74
795.385
943.302
945.692
975.423
992.197
824.485
827.469
979.053
1002.25
1011.77
1051.05
876.728
863.331
1020.82
1066.21
1059.41
1110.94
943.933
900.353
1072.36
882.772
867.567
814.854
684.673
722.251
891.161
890.225
922.857
861.462
721.153
753.113
916.707
919.468
960.673
910.233
762.849
783.339
945.754
973.659
981.697
960.602
810.171
815.194
980.045
1029.79
1013.13
1015.42
862.837
851.512
1021.51
1090.13
1052.14
1077.27
928.456
884.793
1071.05
856.206
839.686
816.881
705.514
738.76
890.21
864.524
887.39
861.994
740.735
767.198
913.985
893.112
920.823
908.888
782.027
797.019
942.456
945.203
934.284
954.03
829.162
829.561
977.085
998.461
960.675
1004.78
880.836
865.995
1018.56
1058.62
1016.08
1070.52
945.639
902.717
1069.44
881.749
893.216
740.717
640.486
762.141
899.564
893.91
936.105
779.177
676.582
793.788
921.936
925.226
976.373
823.949
715.667
825.088
950.612
970.315
1021.63
884.902
761.571
857.772
987.274
1021.5
1069.1
947.691
813.338
894.705
1030.23
1092.34
1099.18
1001.25
877.161
928.74
1083.6
880.158
899.531
753.072
659.59
785.607
913.947
890.677
940.192
790.743
694.541
815.316
937.457
919.741
976.607
832.906
733.426
846.419
966.985
959.801
1007.34
880.452
777.754
879.728
1004.86
1005.45
1043.51
933.02
826.951
916.781
1048.39
1078.93
1089.75
1000.84
892.431
953.954
1100.62
823.756
839.137
800.729
653.542
801.303
924.791
830.07
881.242
835.972
690.622
832.306
948.928
856.81
918.362
880.733
729.992
864.298
978.278
904.203
957.891
946.666
771.935
897.554
1013.68
955.6
1004.6
1013.43
820.675
934.392
1056.06
1023.87
1045.38
1061.11
889.669
969.408
1111.94
829.78
852.993
801.43
651.506
808.929
932.387
833.566
893.738
837.684
687.999
838.153
957.002
858.878
929.491
881.668
726.822
869.291
986.764
903.642
963.11
940.993
767.437
902.214
1023.4
951.977
1003.84
1002.51
814.516
938.464
1066.13
1022.28
1051.04
1058.75
885.673
975.131
1119.33
827.293
838.415
811.696
654.113
795.538
925.111
830.405
882.214
847.813
690.663
824.994
949.838
855.27
918.823
892.401
729.587
856.088
979.381
901.229
952.425
953.157
769.514
888.665
1014.99
950.186
993.844
1015.66
816.173
924.729
1057.25
1019.26
1039.68
1070.99
887.536
960.345
1110.42
818.786
839.851
805.406
642.58
795.072
920.118
821.387
880.323
842.146
678.674
822.861
943.696
846.221
915.892
886.511
717.086
852.988
972.71
892.633
949.819
946.667
757.008
885.321
1008.93
941.736
990.824
1008.53
803.48
920.91
1051.32
1010.61
1038.59
1063.3
875.003
956.981
1102.26
828.029
826.617
797.69
639.79
780.33
916.767
832.063
870.94
834.23
675.806
809.11
941.046
856.876
906.956
878.659
714.384
839.416
969.935
901.421
938.267
937.591
753.671
871.124
1004.51
949.274
977.715
998.648
799.636
906.348
1045.98
1017.09
1022.81
1054.64
870.733
941.006
1098.3
811.589
813.914
779.548
620.836
781.484
919.546
814.515
852.329
815.666
656.243
808.899
944.315
839.046
886.284
859.283
694.067
838.568
973.813
884.728
918.618
918.438
733.507
870.704
1009.86
933.148
958.136
979.273
779.482
905.951
1052.08
1000.67
1006.09
1032.84
849.887
940.188
1102.83
826.302
800.238
744.122
601.814
758.044
912.566
830.19
842.733
779.449
637.066
787.606
937.632
854.919
876.879
822.29
674.954
817.528
967.051
900.05
906.356
878.137
713.783
848.443
1002.25
948.715
944.308
937.094
759.243
883.052
1044.12
1013.04
986.122
992.754
828.154
915.016
1095.23
792.754
770.033
713.089
573.168
744.562
902.653
800.676
807.015
748.601
608.125
772.445
927.011
828.947
841.43
792.108
645.494
801.428
956.212
882.433
883.614
857.222
686.164
832.59
992.49
938.711
931.52
922.751
733.694
867.318
1035.01
995.34
965.216
964.405
801.131
899.444
1083.55
854.128
797.639
684.303
625.374
724.209
898.286
871.515
843.618
724.359
659.765
754.43
924.217
902.223
879.206
766.65
698.74
784.36
953.608
935.728
902.7
807.156
741.44
816.303
987.732
975.49
933.001
853.874
789.209
852.008
1029.22
1044.14
972.129
922.484
852.427
882.229
1078.42
833.698
778.32
675.316
623.236
725.404
895.371
855.022
819.267
715.085
657.976
755.751
922.161
888.426
854.641
758.097
696.94
785.637
951.66
928.016
887.752
807.364
741.644
817.525
986.031
973.488
926.02
860.9
791.678
853.506
1028.01
1033.78
960.592
919.687
854.192
884.397
1075.25
834.306
772.608
682.642
645.935
735.412
902.264
855.142
814.035
722.738
681.082
765.996
924.932
888.243
849.708
765.865
720.629
796.413
953.727
927.662
883.585
814.424
766.009
829.298
989.795
973.024
922.191
867.884
816.627
865.82
1032.17
1033.08
955.247
928.839
879.267
898.031
1085.43
816.632
786.523
712.655
669.806
760.565
913.812
832.843
827.056
752.874
705.522
793.18
942.211
862.608
861.349
796.567
745.774
824.867
972.786
896.279
889.547
845.526
792.313
857.526
1006.96
937.267
923.856
899.14
843.936
894.264
1049.05
1006.45
963.254
961.13
907.187
927
1103.14
782.527
743.823
739.204
693.667
762.702
905.581
789.129
780.968
779.932
729.734
794.843
927.075
816.139
811.821
824.242
770.476
826.4
956.801
869.852
838.58
875.23
817.589
859.465
997.496
925.628
872.684
930.123
869.803
896.921
1043.04
975.658
914.032
989.775
933.952
933.156
1097.13
773.584
760.516
767.111
722.107
791.468
919.604
776.447
797.338
807.876
758.47
825.011
946.465
800.237
826.888
852.205
799.915
857.833
977.703
846.629
845.674
900.17
847.812
891.059
1015.95
896.035
874.151
952.789
900.353
928.861
1060.71
956.643
926.007
1016.84
964.589
966.287
1115.79
783.016
793.809
750.357
700.892
807.477
926.316
786.485
832.903
789.5
737.59
842.246
949.622
811.777
867.265
833.98
778.412
875.766
980.522
858.555
900.62
890.29
825.879
909.371
1021.93
909.485
939.875
949.647
878.68
947.559
1068.17
975.965
979.364
1006.81
943.735
984.935
1126.77
787.659
798.865
748.423
712.801
822.816
923.744
794.175
836.087
787.429
749.283
856.532
948.369
820.873
869.397
831.137
790.181
889.932
979.048
868.159
900.076
884.025
837.797
923.164
1018.12
918.867
937.582
940.802
890.223
960.805
1063.13
982.986
984.13
1002
954.934
1000.41
1122.91
825.984
824.921
741.029
710.836
804.794
907.257
838.875
865.601
779.814
747.576
839.822
927.586
867.519
902.095
823.781
788.526
872.912
957.248
904.217
936.408
877.987
835.706
905.033
999.657
947.582
975.939
935.96
887.904
942.456
1046.75
1019.34
1017.32
996.808
951.746
980.659
1103.71
832.688
840.013
730.59
689.873
790.339
900.94
845.569
878.826
769.148
725.765
820.714
920.243
874.549
914.84
812.682
765.658
851.553
949.529
911.864
949.3
866.725
812.009
883.239
993.708
955.784
988.372
924.263
863.25
919.866
1041.16
1028.14
1031.16
984.917
927.215
961.186
1093.3
841.042
821.566
725.94
659.977
781.925
913.76
848.359
863.742
765.55
695.538
816.224
941.199
875.675
898.162
809.681
735.617
849.254
971.604
923.121
926.187
861.731
781.967
882.502
1005.82
974.495
961.976
917.923
833.499
919.956
1048.29
1038.13
1004.87
978.192
896.388
952.004
1104.68
846.263
848.884
717.065
621.959
757.544
910.581
851.699
890.119
757.001
656.52
786.753
934.94
878.96
925.545
801.683
695.016
816.853
964.748
927.207
958.649
857.929
740.093
849.197
1002.58
979.912
996.828
916.761
790.693
885.316
1046.05
1046.34
1033.01
972.242
855.58
920.501
1097.22
845.725
809.213
766.757
658.426
725.286
895.296
851.385
858.381
812.151
694.045
757.114
922.581
877.825
891.726
859.359
735.092
787.889
952.906
928.458
905.269
906.41
781.811
820.272
988.463
981.064
930.312
957.992
833.547
857.157
1031.54
1038.74
975.609
1018.04
896.002
888.32
1080.3
846.47
814.157
772.284
665.636
730.905
897.529
851.552
859.632
816.586
699.804
759.801
922.239
877.43
891.248
862.467
739.716
789.277
951.618
926.652
903.762
906.596
784.766
821.159
988.061
977.792
927.165
956.026
834.615
856.891
1030.75
1034.71
975.442
1021.82
900.776
891.814
1078.41
817.254
797.592
771.01
647.757
759.654
918.987
820.587
839.318
810.333
684.479
791.888
944.213
846.153
873.232
856.145
724.443
823.048
973.788
896.861
903.37
915.75
769.372
855.08
1008.88
949.994
941.157
977.302
820.436
891.102
1051.22
1010.88
981.354
1030.05
885.288
922.089
1105.74
816.876
803.461
780.713
665.295
781.761
938.802
820.036
843.507