/*--------------------------------*- C++ -*----------------------------------*\
  =========                 |
  \\      /  F ield         | OpenFOAM: The Open Source CFD Toolbox
   \\    /   O peration     | Website:  https://openfoam.org
    \\  /    A nd           | Version:  13
     \\/     M anipulation  |
\*---------------------------------------------------------------------------*/
FoamFile
{
    format      ascii;
    class       volScalarField;
    location    "0.01";
    object      alpha.water;
}
// * * * * * * * * * * * * * * * * * * * * * * * * * * * * * * * * * * * * * //

dimensions      [];

internalField   nonuniform List<scalar> 
51200
(
0
0
0
0
0
0
0
0
0
0
0
0
0
0
0
0
0
0
0
0
0
0
0
0
0
0
0
0
0
0
0
0
0
0
0
0
0
0
0
0
0
0
0
0
0
0
0
0
0
0
0
0
0
0
0
0
0
0
0
0
0
0
0
0
0
0
0
0
0
0
0
0
0
0
0
0
0
0
0
0
0
0
0
0
0
0
0
0
0
0
0
0
0
0
0
0
0
0
0
0
0
0
0
0
0
0
0
0
0
0
0
0
0
0
0
0
0
0
0
0
0
0
0
0
0
0
0
0
0
0
0
0
0
0
0
0
0
0
0
0
0
0
0
0
0
0
0
0
0
0
0
0
0
0
0
0
0
0
0
0
0
0
0
0
0
0
0
0
0
0
0
0
0
0
0
0
0
0
0
0
0
0
0
0
0
0
0
0
0
0
0
0
0
0
0
0
0
0
0
0
0
0
0
0
0
0
0
0
0
0
0
0
0
0
0
0
0
0
0
0
0
0
0
0
0
0
0
0
0
0
0
0
0
0
0
0
0
0
0
0
0
0
0
0
0
0
0
0
0
0
0
0
0
0
0
0
0
0
0
0
0
0
0
0
0
0
0
0
0
0
0
0
0
0
0
0
0
0
0
0
0
0
0
0
0
0
0
0
0
0
0
0
0
0
0
0
0
0
0
0
0
0
0
0
0
0
0
0
0
0
0
0
0
0
0
0
0
0
0
0
0
0
0
0
0
0
0
0
0
0
0
0
0
0
0
0
0
0
0
0
0
0
0
0
0
0
0
0
0
0
0
0
0
0
0
0
0
0
0
0
0
0
0
0
0
0
0
0
0
0
0
0
0
0
0
0
0
0
0
0
0
0
0
0
0
0
0
0
0
0
0
0
0
0
0
0
0
0
0
0
0
0
0
0
0
0
0
0
0
0
0
0
0
0
0
0
0
0
0
0
0
0
0
0
0
0
0
0
0
0
0
0
0
0
0
0
0
0
0
0
0
0
0
0
0
0
0
0
0
0
0
0
0
0
0
0
0
0
0
0
0
0
0
0
0
0
0
0
0
0
0
0
0
0
0
0
0
0
0
0
0
0
0
0
0
0
0
0
0
0
0
0
0
0
0
0
0
0
0
0
0
0
0
0
0
0
0
0
0
0
0
0
1.3043293e-25
7.723162e-24
-1.3296515e-43
0
-2.766771e-59
-3.8205324e-62
-1.4307992e-64
0
1.7476077e-46
0
8.0715647e-37
7.1431188e-24
-3.6417506e-56
-5.3350911e-59
-3.0530489e-61
7.0507853e-42
9.0341587e-21
1.7350614e-18
1.3915445e-17
-8.6770521e-53
-1.1962644e-53
-2.2307362e-56
-1.5103452e-58
-1.6300141e-55
2.5296585e-19
8.2608831e-18
5.9200327e-21
-2.0388092e-49
-1.62274e-51
-3.8820257e-54
-2.804071e-56
0
-1.3616413e-40
4.4971645e-21
-4.6051376e-49
-2.4030293e-47
-1.0843083e-49
-3.122174e-52
-2.3797444e-54
0
-2.3557484e-51
-3.4990615e-49
-2.4836833e-47
-1.3379641e-45
-3.6795896e-48
-1.2052839e-50
-9.4830813e-53
0
-4.6725539e-50
-6.9975703e-48
-5.2353655e-46
-2.9486228e-44
-5.172541e-47
-1.8967332e-49
-1.4496369e-51
-2.6728096e-54
-1.2011392e-56
-1.237687e-54
-5.0741783e-53
-2.0584946e-56
-1.379796e-58
-9.8711168e-61
-1.3060469e-62
-8.9378548e-55
6.5248158e-26
3.8201533e-16
4.6151304e-12
3.0510825e-10
3.6736945e-12
-1.3782481e-42
0
8.958718e-13
3.7598412e-14
8.1342781e-15
4.8109684e-11
1.4755212e-09
2.7324868e-11
6.7597098e-16
4.2321972e-17
1.7893037e-27
9.1326241e-21
1.4422732e-20
1.1389097e-20
1.5896008e-21
1.281682e-34
2.6346135e-16
0
7.1389229e-35
8.9682705e-20
4.3236625e-20
4.2454205e-21
4.857452e-15
8.4115907e-12
1.0065097e-12
1.8275643e-32
0
7.5183066e-12
2.2546747e-21
0
2.3392827e-30
6.5116339e-10
8.0667366e-11
2.3410067e-13
9.3698057e-23
-5.5772835e-37
-2.6471272e-44
4.5690011e-33
6.0941486e-16
1.9695015e-09
4.1204881e-10
7.2765743e-12
3.4348061e-31
5.7111383e-34
6.9718621e-36
3.3617678e-16
5.6727674e-11
1.6570452e-09
4.767193e-10
4.3539088e-11
6.310526e-14
7.8854355e-55
3.173525e-12
1.0234563e-13
1.9084745e-11
4.6158306e-10
2.0158366e-10
1.0299487e-10
2.4131874e-12
1.1866899e-18
1.6358234e-15
1.7063326e-11
8.5331726e-10
4.8499923e-15
7.1229671e-17
1.9581838e-06
1.1497172e-08
1.7511501e-18
2.9245551e-12
3.3777884e-11
6.80884e-10
1.5504959e-16
1.5034826e-16
6.9616702e-06
9.1326504e-08
3.8645786e-14
1.9214504e-10
1.0270575e-08
3.8848547e-08
8.3374023e-17
1.5504958e-16
5.7087883e-06
1.0579418e-07
1.9321846e-15
1.5344014e-13
1.7539989e-07
5.7664986e-07
2.1011335e-16
1.6089882e-16
1.1748948e-07
2.7056486e-08
2.7868229e-10
5.1951324e-10
9.7853448e-08
5.1908741e-07
2.5199144e-14
3.5099303e-15
8.3048411e-15
2.8457227e-09
1.1741801e-09
8.2296368e-10
6.6133121e-09
1.4965765e-08
2.626712e-12
3.1076027e-14
9.7158258e-15
8.7327308e-10
1.5307736e-09
1.7839068e-10
6.5398569e-11
4.3208843e-13
3.8609527e-13
1.9340294e-13
3.2507383e-14
8.942801e-10
7.0857256e-10
4.5719003e-12
1.0570331e-13
3.8536508e-13
5.5446575e-17
4.7220743e-13
1.9340294e-13
4.275007e-10
1.6229413e-18
1.700034e-18
8.5714454e-17
3.1042539e-14
0.00031775891
0.0010284659
1.1858016e-10
2.4694592e-09
1.700034e-18
4.7959963e-14
3.1042539e-14
4.1624264e-12
9.3150596e-05
0.0010194247
1.206484e-10
2.0671467e-08
1.2307174e-16
1.981418e-10
1.5208009e-08
3.3544758e-07
7.7345451e-05
0.00082059101
6.0278919e-11
2.7220606e-08
7.3701323e-14
4.5074895e-09
7.8823827e-08
3.0624913e-08
7.8820553e-06
0.00088204031
4.7905465e-12
8.2338323e-09
3.4635973e-10
2.7710558e-09
3.4929387e-08
2.9634228e-08
1.8133201e-12
0.00079124292
9.7378401e-15
3.1617831e-13
2.4880004e-09
6.6834499e-10
2.664006e-12
2.1755413e-11
8.8053168e-12
0.00048854966
1.7996578e-05
5.791268e-13
2.6804572e-09
1.4073242e-10
5.9128559e-13
6.3074731e-13
1.8315572e-06
0.00016288484
2.0427387e-05
2.5114276e-12
2.2051873e-09
8.5357795e-12
1.2015096e-13
2.9825129e-13
1.7845763e-12
1.9862548e-05
1.7206126e-05
5.8880212e-12
1.6577797e-05
6.9724781e-06
3.1042539e-14
1.138646e-05
0.0010593859
0.0011274007
1.1479113e-10
2.529807e-10
1.2444813e-05
1.9197965e-13
1.299241e-11
4.8127894e-06
0.0010277663
0.0011610984
6.0278919e-11
4.0170317e-09
1.2482047e-07
1.3128328e-11
1.4746627e-10
2.0629016e-05
0.0009588992
0.0011596575
9.571374e-12
1.0872687e-09
8.8095512e-10
3.9505595e-11
1.5116567e-10
1.712539e-05
0.00081384327
0.00115618
5.0970057e-12
6.6457056e-13
2.1489859e-10
1.7632085e-11
3.9503324e-11
2.1242661e-09
0.00058969261
0.0011514541
3.1617851e-13
5.7895246e-13
1.4242599e-09
8.8952348e-12
1.4116531e-11
1.9133601e-10
0.00033287612
0.0011416587
5.7936132e-13
5.0122396e-13
1.2375425e-09
5.1016089e-12
2.6642002e-12
6.4167199e-10
0.0002076183
0.00090228334
2.5114269e-12
5.7902245e-13
3.571571e-10
4.4689195e-12
5.9181892e-13
7.0058986e-12
7.2038241e-05
0.00063448821
1.7041339e-07
2.5114268e-12
1.1846486e-07
1.9265013e-07
0.0014066421
0.00072235751
0.0010758778
0.0011019758
1.1858016e-10
1.7232306e-05
7.3311551e-09
1.2187079e-05
0.0011995897
0.00046951179
0.0011659323
0.0011647955
1.1986625e-10
3.289781e-08
4.1480193e-10
1.4740655e-10
0.00066534919
0.00040801526
0.0011659461
0.0011644308
6.0278919e-11
7.5460467e-07
4.0802602e-10
1.5116564e-10
0.00013481368
0.00038681425
0.0011656531
0.0011423312
9.5713751e-12
3.3515642e-06
4.8447006e-09
4.4309059e-06
2.1236164e-09
0.00031240202
0.0011647053
0.001137854
1.488516e-10
1.0917761e-06
1.3581685e-10
1.7632085e-11
1.2547991e-09
0.00039104141
0.0010923988
0.0011301921
1.8989735e-09
2.138831e-07
1.5197896e-10
8.6223118e-12
6.4327595e-10
0.00011349676
0.0005496227
0.0010918843
1.0875695e-09
1.0866357e-06
1.5665315e-10
5.6292558e-12
1.8273185e-10
7.4724582e-05
0.00036108002
0.0010898569
1.321604e-10
9.6800607e-12
0.001905577
0.001782983
0.0065524983
0.0032416362
0.00071022879
0.0003862972
4.0066621e-05
1.5015857e-05
0.0019087011
1.2597715e-05
0.0061079362
0.0031211621
0.00061898531
0.00065369203
2.4914706e-05
1.1505663e-09
0.00058328581
0.0066152982
0.0070604212
0.0035023906
0.00060217853
0.00081440513
1.9491963e-09
1.2809694e-09
0.00025472019
0.0046825343
0.0070803681
0.0016211258
0.00079984013
0.0009614879
4.7664704e-09
8.3327313e-07
9.643814e-08
0.000481507
0.0070844434
0.0022344234
0.00058999038
0.00089672788
2.2876722e-09
1.7537486e-06
3.2170307e-09
0.00031309517
0.0071129997
0.0011551588
0.0003713073
0.00095614493
3.7973676e-09
4.306201e-09
2.8693846e-10
0.00044935854
0.0069219019
0.00094327487
0.00020949907
0.00089430966
6.9502522e-06
4.3522018e-06
2.4356345e-10
0.00076916019
0.0047804963
0.00033758861
0.00016610244
0.00067993563
5.1861051e-05
1.7780296e-05
1.6502893e-05
1.3150636e-05
0.006566211
0.0033581239
0.00071777705
5.6820106e-06
9.2225754e-05
0.0004091453
9.4975732e-05
2.0692914e-05
0.0067426735
0.0049633056
0.00013407552
4.764104e-05
5.6959578e-05
0.00034886786
0.0001043458
2.0128235e-05
0.0067117869
0.0017960189
0.00052810871
0.00017249626
2.9567889e-05
0.00027344489
1.2989589e-05
5.8645125e-05
0.0071124982
0.0038302942
0.00030993279
0.00024248365
1.0656228e-06
3.9937239e-05
1.0511102e-06
5.1254214e-06
0.0071386606
0.0025443614
2.3732447e-05
0.00019761302
2.7952733e-05
3.4081068e-06
1.1638619e-05
2.8795149e-05
0.0071232752
0.0029141174
6.7667707e-06
0.00021891523
0.00013534922
2.3520289e-07
2.0511509e-05
0.00050711792
0.0065469529
0.0010079797
1.4491591e-05
0.00018068307
5.7968341e-05
1.3750156e-06
3.9801755e-05
0.00047772383
0.004497681
0.00085985564
6.640875e-06
6.1441611e-05
4.1721473e-05
2.7077151e-05
1.1321624e-05
2.6677704e-05
0.0011913074
0.00017643039
4.6228599e-05
5.6246923e-06
3.2319097e-05
0.00040854022
0.000142628
3.5955552e-05
0.0019790913
0.0024221532
5.6778326e-06
5.4184407e-06
4.3712886e-05
0.00028873582
0.00010229889
0.00046587897
0.0016161149
0.0009164241
2.1239786e-05
4.0663285e-06
2.3496064e-05
0.00026069273
1.4109948e-06
0.00020988501
0.0024167676
0.002910572
2.9391521e-06
1.4924212e-06
1.2265189e-06
0.00012109148
1.379121e-06
0.00021805198
0.00091520826
0.001122772
5.1552826e-06
4.1505952e-06
1.1162283e-05
4.6244544e-05
9.6488799e-07
0.0010964183
0.0034097309
6.0441516e-06
4.2836829e-06
3.0070581e-06
2.1139198e-05
0.00017373843
1.544448e-06
0.0014216104
0.0088301164
0.00084485842
7.0026433e-05
8.191393e-07
1.1620485e-05
0.00016705766
3.8181752e-06
0.0023552312
0.010361657
0.00049143243
3.6536784e-05
1.5545184e-07
1.2712709e-06
2.2931526e-05
9.6203849e-06
8.2790033e-06
0.00068718157
0.0072759025
0.00053497187
5.486723e-06
6.4530326e-06
1.0279318e-05
0.00010111482
4.8698022e-05
0.0022085403
0.0049672331
0.00038562149
5.0843205e-06
3.3316786e-05
0.00027750298
4.8572391e-05
0.00029175421
0.001730068
0.0037215191
0.0021342186
4.463085e-06
5.6237386e-06
6.414433e-06
1.5233578e-06
0.00013457032
0.0039610009
0.0092110426
0.00019886688
2.9391521e-06
0.00056258263
7.2716672e-06
1.4109615e-06
4.2749618e-06
0.0031872122
0.028325236
0.0042005762
4.3880481e-06
0.00087437308
4.2716381e-05
1.195566e-06
0.00013806901
0.00019136164
0.028234655
0.0035369504
3.8575735e-06
6.7451211e-05
9.3107133e-05
4.2623727e-05
0.0026610468
0.0024054159
0.035366094
0.0011303691
2.0706167e-06
7.5040078e-06
9.7377144e-05
2.5292919e-06
0.0043509355
0.013145966
0.023593506
4.1681813e-06
5.8656199e-07
0.00021168131
0.00050330131
7.8022644e-06
7.6752022e-06
7.6545526e-06
0.022623284
0.0023478332
5.5452055e-06
0.0029656968
0.0068372877
7.5918602e-06
7.654524e-06
0.00031709346
0.018723067
0.014371827
0.0029543573
0.00160707
0.011272632
1.0312243e-05
2.9215324e-05
0.0023657739
0.0060245357
0.014443394
0.0047404424
0.0032672315
0.0065470198
6.0766135e-05
4.4373447e-05
0.003889157
0.0039335659
0.010060125
0.0027144573
0.0029070235
0.0049125029
0.00034435806
3.7627413e-05
0.0083027855
0.06831965
0.061843997
0.0072234592
0.00077870911
1.8727275e-05
0.0013256869
0.00095726214
0.033779481
0.06795416
0.051939616
0.015143824
0.003102706
1.1524264e-05
0.00014501909
0.001401244
0.027990164
0.28670174
0.26840299
0.050218223
0.0080349048
0.0072577483
0.0022494416
0.0017930861
0.16318865
0.44597048
0.38207441
0.11055233
0.006204989
0.0060963596
0.0068073778
0.0048926484
0.0016940126
0.023430053
0.02445936
0.02575987
0.065417686
0.065427191
0.0063160406
0.0029033967
0.0010613823
0.011449218
0.011249022
0.0096893619
0.006634966
0.0082616462
0.0092676037
0.0057805436
0.0042613167
0.01008602
0.012842094
0.0082175162
0.023305988
0.076323042
0.0068261744
0.019476472
0.073457277
0.24753421
0.12226424
0.030795905
0.010993793
0.076323986
0.00049532697
0.011904777
0.033722819
0.58045847
0.56351273
0.076765951
0.00082971991
0.074160455
0.0010009645
0.0021997598
0.24176631
0.75071681
0.76787637
0.36774713
0.02376615
0.067115514
0.003523656
0.0014465591
0.49925182
0.9407462
0.7738032
0.49740756
0.090875304
0.020044385
0.022850998
0.069051043
0.80670491
0.97254755
0.93477468
0.69620653
0.39932578
0.032184456
0.0049964773
0.0049986513
0.0019610282
0.01221304
0.014846491
0.01013517
0.065424641
0.01536786
0.0040676209
0.001683854
0.0060437886
0.011288341
0.0078421877
0.0085014006
0.039379
0.015634739
0.0096117625
0.0018413264
0.055720099
0.12881167
0.0069437982
0.0065821794
0.010932451
0.016771359
0.0095414313
0.040808978
0.063718292
0.68359494
0.27563371
0.020273449
0.011918395
0.034421318
0.0029786978
0.030992067
0.084358619
0.86414544
0.87827615
0.1269438
0.025690701
0.045152772
0.039069316
0.0066814527
0.48280848
0.98193993
0.98509651
0.4117624
0.081003468
0.025581581
0.039069316
0.01939607
0.77328387
0.99969617
0.98748808
0.60626625
0.05282572
0.0033414964
0.0020856839
0.2810651
0.92523531
0.99998405
0.99996414
0.88885117
0.29431128
0.0060106271
2.3301817e-06
0.00031981418
0.0015642492
0.0029235213
0.0029372761
0.007674782
0.0038772165
4.3167642e-06
2.5259135e-06
0.0001780652
0.0016125317
0.0082670987
0.013550492
0.0099284156
0.01116742
0.0028706344
0.00024075678
0.0030015334
0.022982796
0.023041232
0.024974314
0.0053996446
0.016478387
0.00048597279
0.0025839393
0.004470456
0.034599246
0.12198204
0.054250122
0.0047310244
0.018890385
2.9823094e-05
0.0043597519
0.0056065252
0.032663771
0.39415746
0.25475014
0.059335892
0.018719894
1.3538539e-05
0.019543638
0.0089764535
0.17543814
0.54973593
0.45125194
0.13749534
0.028184997
3.0005502e-06
0.023345421
0.031791295
0.31299677
0.778298
0.54736137
0.29319375
0.04658403
1.3813696e-06
0.00037158632
0.10902912
0.59218376
0.94581638
0.69712791
0.4283932
0.077447349
0.00163293
2.2783893e-06
2.9337634e-05
0.00029699252
8.2666899e-06
0.00026619705
0.0012671117
0.00060763002
1.4608042e-06
2.3301817e-06
0.0001444338
0.00058732505
0.00045958628
0.00037942353
0.0016777817
0.0001980001
1.1525006e-08
2.8391057e-06
0.000103576
0.0013905282
0.00084367964
0.0018960118
0.0018184243
1.5006716e-05
1.0944538e-06
8.1556368e-05
0.00028194335
0.0012739398
0.00036199834
0.0020982851
0.0026377318
1.4316888e-06
8.0654057e-05
0.00013693846
0.0019364943
0.0062740766
0.019017678
0.0071512741
0.0068349138
0.006027336
3.9223485e-05
2.4527426e-05
0.0054178099
0.013273619
0.065071581
0.041035973
0.0092225108
0.014033727
2.5458403e-06
0.0012577417
0.009320777
0.033633225
0.16916676
0.10258405
0.02662064
0.014540924
5.4845749e-07
0.0013895022
0.0068561724
0.091630665
0.31075063
0.21335396
0.04745232
0.00037213466
1.3850031e-06
2.2680002e-06
1.9289035e-05
1.2799456e-05
7.0618492e-06
6.6082189e-09
1.6444901e-11
3.4328786e-06
3.2936821e-07
2.6546676e-05
0.00012963811
5.7326012e-05
1.6571254e-05
1.3870651e-06
6.6082189e-09
5.8855227e-07
4.2597155e-09
1.0221867e-05
0.000152447
0.00013845935
0.00018126938
3.3125559e-05
7.3738538e-08
9.378465e-07
4.5019594e-06
1.2754661e-05
0.0001619124
0.00015629074
0.00035157019
8.9632233e-05
6.7296461e-07
9.8846056e-07
1.1368328e-05
3.8657841e-05
0.00024677305
0.00019373798
0.00024735592
0.00011447331
6.5050744e-05
1.1003306e-06
1.1127134e-05
2.4046406e-05
0.00025939976
0.00026715264
0.00028881134
0.0003031435
0.00044771389
1.7923271e-06
3.5841641e-05
4.1749481e-07
1.6942337e-05
0.00016835892
0.00043657581
0.00066972404
0.00036036064
0.00018966838
7.2233556e-05
7.8082945e-05
7.7159668e-05
0.00033460019
0.0020168907
0.0017336648
3.2015624e-05
1.4594156e-05
8.7922614e-06
1.1379726e-08
1.1793586e-09
2.6002659e-05
1.0800713e-06
5.1661443e-10
1.8465895e-13
1.5474565e-11
8.5348106e-12
1.3270963e-05
0.00025067912
0.00065637652
6.1621827e-05
2.4687448e-07
8.844815e-08
3.0586251e-11
7.4568702e-08
1.1167622e-05
0.00022560474
0.00089504855
0.00020574186
9.0282663e-08
8.9578718e-08
3.0763854e-06
5.171422e-07
5.6038258e-10
0.00015939478
0.00089849034
0.00038153167
4.6551139e-08
5.8132116e-06
3.2259169e-05
4.6354778e-07
8.2928135e-11
0.00018251335
0.00077366306
0.00029961789
5.7602461e-07
5.382467e-06
5.4717349e-05
1.5785513e-05
7.8404301e-08
0.00021586206
0.00038982179
0.00012555833
1.0962978e-06
1.0023318e-07
5.4505315e-05
3.5930579e-05
7.1555346e-09
0.00015075096
0.00072972968
0.00014813946
1.1885172e-06
1.4448084e-06
1.1172821e-05
1.0126941e-06
6.2888491e-07
0.0001639493
0.0010882373
0.00037165864
4.8851012e-06
6.4636383e-06
1.2142207e-05
3.7565701e-06
1.3752917e-15
2.1915784e-13
9.9751127e-07
6.4213377e-12
1.8465895e-13
3.4382626e-14
1.8465895e-13
1.1881508e-10
2.1915784e-13
7.0726807e-06
0.00016602902
1.4230985e-05
3.6770586e-08
1.5228582e-10
7.1711797e-08
3.6913274e-09
1.9393329e-05
7.8544436e-05
0.0008567238
8.6972561e-05
4.56657e-09
2.1746669e-07
5.3026153e-07
2.7748132e-10
5.7793121e-11
0.0001769835
0.00091345552
0.00012447088
2.6396121e-09
2.4901295e-06
5.6332057e-07
3.1817604e-07
4.3373719e-11
0.00017807051
0.00091471707
0.00012072862
4.9085298e-08
7.1418547e-08
2.6598794e-05
4.3778921e-06
8.2928135e-11
0.00028133207
0.00091490192
0.00012335969
8.1447237e-08
9.0367184e-08
5.8045986e-05
4.044917e-06
2.0848646e-09
0.00030225337
0.00092348134
0.00018062551
1.2665298e-07
9.0355416e-08
3.4580112e-05
2.7062846e-06
5.9676784e-07
0.00014715788
0.00092828911
0.00021765721
5.7156237e-08
1.7440053e-06
1.1594578e-05
1.2880093e-06
8.0090492e-16
1.3752931e-15
5.1910818e-10
5.2617607e-13
4.9883695e-13
1.1700585e-14
1.1628952e-12
3.3564138e-15
6.8478561e-08
1.326888e-06
1.077637e-05
2.2345154e-06
3.2543549e-09
2.2686929e-14
5.9005447e-10
2.6164213e-15
2.8233536e-06
5.6795018e-05
0.00015739812
1.6489466e-05
9.0062839e-10
6.3482863e-08
3.3685957e-09
3.3910802e-13
1.7475305e-11
0.00010469731
0.00045630625
2.2714567e-05
1.7889964e-09
9.287884e-07
4.7310264e-08
1.1210706e-07
2.2846492e-12
5.0603982e-05
0.00073847091
3.5820116e-06
5.5237557e-07
8.9826211e-06
6.5252873e-06
2.5476015e-07
9.3232981e-07
0.00026573137
6.5393106e-05
5.7319771e-05
2.5949675e-06
2.4512422e-05
3.2602719e-05
7.1108514e-08
5.398253e-07
0.00033387569
0.00012280367
7.581768e-05
2.4444006e-07
3.472662e-05
3.859181e-05
8.847742e-09
2.1694613e-06
8.1743291e-06
2.1077313e-05
2.0656381e-05
3.760697e-08
4.607039e-06
1.0924629e-05
9.1535063e-08
1.152562e-13
2.787831e-11
2.078697e-11
1.9778306e-12
1.350385e-13
5.3538105e-16
5.0826969e-16
6.6799903e-19
1.2534773e-09
1.5458952e-11
2.1059541e-06
1.0108469e-07
1.3507983e-13
9.8583948e-13
1.3167534e-13
4.0868362e-18
9.4166763e-07
2.7204462e-05
6.4264259e-05
8.8967036e-07
4.1250011e-12
2.9148717e-09
1.7193584e-10
1.6399404e-13
1.1365405e-06
9.5759024e-05
0.00018455478
4.5265648e-06
3.4215234e-07
5.4980318e-07
4.4606912e-09
1.0287258e-08
1.1216817e-12
8.141959e-05
0.00029140244
1.0259071e-07
6.3439215e-06
4.7445937e-05
5.0888647e-06
9.5343394e-08
2.2846492e-12
0.00011618567
0.00031966409
1.1710785e-07
1.8583606e-05
9.2929108e-05
1.5258736e-05
3.7235803e-10
1.0161705e-10
0.00018214536
0.00021398981
2.0371869e-06
2.4836506e-05
9.3319889e-05
1.6205736e-05
3.8168371e-10
1.2304858e-06
9.6313939e-06
0.00010109809
1.0553714e-05
2.7006853e-05
4.8879883e-05
1.713611e-06
4.1143868e-10
4.152469e-20
9.6740819e-12
1.2710655e-10
7.017954e-13
1.2313264e-13
1.4801826e-16
3.1972642e-21
4.7234961e-22
2.5093069e-12
1.3580274e-12
1.892697e-07
4.4569825e-13
2.0888711e-11
7.0605532e-13
5.2289496e-16
3.0396615e-18
1.0234835e-07
9.8354248e-06
5.1997039e-05
3.2695677e-07
1.4823881e-11
5.851851e-11
2.0244584e-12
4.9061886e-15
4.7007978e-07
4.1834617e-05
0.00019573213
3.4951806e-06
3.2268362e-07
1.2261513e-07
6.5943759e-13
3.3189788e-10
3.6062543e-14
8.1188793e-05
0.00031976337
1.026999e-07
4.6492818e-06
2.8392016e-05
2.3772624e-06
2.8533688e-08
1.2508991e-12
7.8214995e-05
0.0003206007
1.0283422e-07
2.1253619e-05
8.8504909e-05
8.3238227e-06
3.7243709e-10
2.4295312e-12
0.00011085371
0.0003204838
7.2002804e-06
7.7912837e-05
9.3361826e-05
6.7431124e-06
3.7241433e-10
1.0163271e-10
0.00014311154
0.00031980194
1.9832852e-05
9.4053832e-05
9.3591686e-05
8.122217e-07
3.8168661e-10
2.9276385e-22
3.5014806e-13
1.7191161e-11
3.849292e-15
1.6711425e-15
1.8202212e-18
1.5474818e-23
2.2713613e-27
1.2556348e-13
6.8519863e-14
5.4617438e-09
2.0122408e-14
4.0730683e-12
9.4470449e-14
2.532955e-17
8.6379103e-21
1.4106989e-08
2.7079787e-06
2.3848585e-05
8.8995294e-08
2.106086e-10
3.4740137e-15
2.072506e-17
1.4847257e-17
6.8573478e-08
1.6923297e-05
0.00011878995
1.905415e-06
1.3385724e-07
6.6033626e-13
4.8421977e-15
2.3713366e-12
1.2449554e-07
4.7710565e-05
0.00024140049
1.2919866e-07
1.8642391e-06
2.4609533e-06
2.0320151e-07
1.8228843e-09
4.1966932e-08
5.9586401e-05
0.00032048299
1.3567159e-07
1.1036476e-05
2.0474717e-05
1.8196629e-06
6.3939365e-10
1.6310632e-07
6.9901069e-05
0.0003205958
6.1814697e-06
7.4199284e-05
4.921833e-05
2.1106166e-06
2.9715456e-09
3.5594346e-06
0.00017513557
0.00032048364
2.6788403e-05
9.3974022e-05
6.2493901e-05
2.1256904e-06
5.6593281e-09
1.2395769e-20
1.2492228e-16
5.5092479e-14
1.5643125e-17
1.2767365e-18
1.0317205e-21
1.0568912e-26
2.7373934e-30
4.7376315e-16
1.5033583e-16
1.5685528e-10
3.4817729e-13
6.2145395e-14
7.8933359e-16
1.9844846e-19
2.2713613e-27
1.6689375e-10
9.594324e-08
2.1718802e-06
2.611475e-09
3.7555879e-11
1.6826545e-14
5.43056e-19
3.2536409e-20
3.6705743e-10
1.3251343e-06
1.98423e-05
2.9372075e-07
8.1595214e-09
9.996066e-15
3.8641564e-17
3.1739144e-16
5.0138821e-08
4.378108e-06
4.0064475e-05
3.8768113e-09
1.9626003e-07
2.4169655e-09
6.4490417e-15
9.4495249e-13
4.2776661e-08
1.4075398e-05
9.4186896e-05
3.5382774e-07
1.3141228e-06
4.4877967e-08
2.6532953e-10
1.4768695e-10
4.7355712e-08
1.8959348e-05
0.00016760772
1.2432096e-06
2.2177007e-05
2.0264164e-06
4.7385549e-08
1.3133945e-09
1.7270381e-06
6.7201873e-05
0.00023588254
7.53804e-06
5.8513575e-05
5.406341e-06
1.0851114e-06
1.3434786e-08
7.1191058e-23
7.5619324e-20
3.1335474e-17
1.4804283e-20
2.4163438e-24
4.0866202e-25
1.7718179e-29
3.2099682e-31
7.6992334e-23
1.1553782e-19
1.3451977e-14
3.3706463e-15
4.8982582e-17
4.704953e-19
1.2929394e-22
1.3169534e-28
8.9307292e-14
4.8710448e-11
2.9650399e-12
5.7783408e-13
2.8025116e-13
2.9513597e-15
4.3939239e-21
2.1297625e-21
1.2625916e-12
8.6421544e-10
6.188677e-10
2.2737412e-09
1.5243039e-12
2.0800729e-16
1.3208559e-16
3.2140216e-17
1.4146132e-09
2.040256e-09
2.0714777e-11
9.6330923e-13
2.5384488e-11
5.1133473e-12
2.722836e-13
4.0658446e-14
8.4283541e-09
5.714698e-09
1.9209609e-07
2.8591573e-07
9.2661019e-09
6.6247267e-12
1.7504313e-11
4.7496821e-12
2.4576023e-09
2.3780443e-07
6.0245739e-06
4.3083562e-07
3.1156002e-07
1.1536297e-09
1.1677013e-12
4.9821336e-11
2.0143519e-07
1.2156695e-06
1.7419453e-05
3.9070071e-08
3.7174194e-06
3.4712468e-08
1.9396543e-08
4.0184057e-09
5.7062641e-27
2.5812182e-26
7.6264272e-22
8.1935549e-23
1.335864e-25
1.1008842e-28
1.4332969e-30
2.307248e-31
1.2293562e-21
2.7936332e-18
2.0384507e-19
8.1996465e-18
4.849733e-20
2.809539e-22
2.2263049e-25
1.900183e-26
2.2159539e-17
2.1623389e-15
7.112618e-15
8.7653634e-14
4.549586e-16
1.163669e-17
5.9106163e-21
5.0724958e-22
5.1535179e-17
1.8465508e-13
2.7451138e-12
5.1820991e-14
2.634363e-16
7.2634236e-17
1.3270755e-16
5.5892342e-18
1.5172699e-14
1.1970524e-12
7.2102283e-13
5.2933946e-13
3.053945e-11
2.7544814e-13
2.8452696e-13
2.5270867e-15
1.4347797e-13
2.8709673e-12
4.1292483e-11
7.5484538e-08
6.2861662e-10
4.8635214e-14
1.2485048e-11
1.3216417e-13
2.2405305e-11
1.5989711e-11
4.0795519e-10
1.1305567e-07
7.5666162e-10
8.5663854e-13
1.1176376e-13
1.2077643e-13
4.5005825e-12
4.3624426e-10
1.3222834e-09
2.0299968e-08
2.9817247e-10
2.9106904e-11
6.2613523e-13
9.009858e-11
4.8024055e-30
2.0174104e-26
1.7202845e-24
5.3798874e-26
8.3891399e-29
9.8141664e-32
9.0838252e-31
8.4245812e-33
6.889203e-24
1.9551034e-19
4.6339327e-19
4.9831484e-20
7.840105e-23
4.414e-25
8.1850251e-26
9.4456231e-28
5.6334206e-20
1.067228e-16
1.47912e-17
3.3326795e-15
5.1349952e-18
3.6211817e-21
2.4039172e-21
2.4363521e-23
3.7301425e-18
4.2861381e-17
1.2130128e-14
1.9115894e-16
3.3197647e-17
1.4959235e-18
5.0145934e-17
1.500529e-19
4.3822381e-16
2.670247e-15
5.2492562e-14
2.8018837e-10
9.7365775e-12
4.0302786e-15
8.586827e-14
3.2167539e-17
7.0029082e-16
1.7921341e-14
2.5235163e-13
1.1149484e-10
5.0544574e-12
9.0810736e-15
2.6915224e-12
9.5903885e-16
2.4525184e-14
9.3880145e-14
2.7913255e-12
5.5072874e-12
1.488576e-11
1.0874308e-13
1.0562805e-13
2.7351445e-16
7.4881448e-14
6.2034944e-13
1.0159008e-11
2.9283318e-09
1.1889371e-11
4.1846669e-14
8.0871597e-14
5.6440692e-14
1.0366842e-35
4.3150781e-28
1.2885316e-27
3.0294821e-29
9.4512997e-32
8.4758167e-33
2.1089389e-31
2.132869e-35
3.8926699e-31
4.3717994e-22
9.5547451e-21
6.2948689e-23
1.287481e-25
1.031908e-27
1.8837286e-26
3.4062205e-30
8.9973915e-23
3.0802546e-18
7.2294474e-17
7.9361869e-18
6.6120694e-21
1.1243833e-23
5.8166117e-22
8.6174643e-26
1.3995852e-20
6.8390052e-17
1.3184852e-15
9.773783e-18
7.3671868e-18
6.9157092e-20
6.6646399e-18
3.5585598e-22
8.6049405e-18
3.8835687e-16
1.4839375e-15
5.4475325e-11
4.5339473e-13
1.2029675e-16
7.2180164e-15
8.087638e-20
1.2357457e-16
2.831976e-15
2.4433617e-15
3.131564e-13
2.7420153e-14
2.7527261e-16
1.3371499e-13
2.3112952e-18
4.3928074e-16
5.8270391e-15
2.1592044e-14
5.0461553e-14
1.1349059e-13
5.7999633e-15
1.1332789e-14
5.9876189e-18
8.7689143e-15
9.4343312e-15
8.6223347e-14
2.5118898e-12
1.3506502e-13
7.8743708e-15
2.8242091e-13
1.3435654e-15
3.7040699e-39
1.4636459e-30
4.6869228e-29
9.7895504e-31
6.6291618e-33
1.3908091e-34
5.8351143e-33
1.9544419e-45
4.2426698e-34
1.6214116e-25
7.1148718e-23
2.7078728e-25
8.2267313e-28
5.2591029e-30
8.6728953e-28
7.4508177e-35
1.5204697e-25
5.3159063e-21
3.4274443e-18
1.3686085e-20
2.5354246e-23
1.0685511e-25
2.2491053e-23
3.7066731e-29
3.0197353e-23
1.6801365e-18
2.0351325e-17
4.5023404e-16
1.3424406e-18
1.9139354e-21
1.362404e-19
3.0040641e-25
3.0137763e-20
4.802989e-18
8.0297154e-17
6.8747639e-13
2.2452519e-15
1.2157401e-18
9.6092687e-17
2.1165831e-22
1.4529719e-18
5.8943814e-17
5.222306e-16
4.5347798e-15
1.7525153e-16
3.1092643e-18
1.1173651e-15
9.034217e-21
3.1935757e-18
2.081216e-16
3.0182621e-15
1.0956449e-14
1.0967342e-15
1.0465349e-16
4.3416902e-16
6.1122961e-20
3.1487998e-16
1.267651e-15
1.0575539e-14
1.0112297e-14
4.3770431e-15
2.1804432e-16
5.0356847e-14
2.0618197e-17
1.404709e-42
3.5407944e-37
3.3319921e-31
2.5091428e-32
7.4708755e-35
5.0025749e-38
2.9792548e-36
1.5218757e-47
3.5417564e-37
1.6290206e-28
2.149377e-25
3.5349441e-27
8.2109372e-30
1.7553441e-32
1.6837245e-30
2.7005871e-41
2.8674506e-28
6.1819422e-24
4.9655848e-21
3.8752097e-22
3.3785287e-25
5.6075435e-28
5.7485546e-26
6.4682654e-33
8.0167509e-26
1.5617586e-21
7.5455179e-20
2.4713738e-17
2.4953397e-20
1.1300891e-23
3.486719e-22
1.3303171e-27
9.045419e-23
1.5418858e-20
6.3761081e-19
6.9426043e-16
4.4019533e-18
4.187835e-21
2.4532403e-19
1.3921777e-24
3.9272303e-21
2.9117984e-19
8.9997115e-18
6.3765161e-17
1.182921e-18
2.1197886e-20
3.1396241e-18
5.8436171e-23
1.9134584e-20
1.6137374e-18
6.6694815e-17
3.6354736e-16
9.460372e-18
8.3516125e-19
4.9762378e-18
2.96737e-24
2.3441415e-18
2.1630497e-17
3.3265191e-16
5.6968478e-16
5.4892489e-17
1.6556705e-18
1.0922444e-15
1.6974459e-19
5.5673725e-46
3.0674162e-40
7.7047984e-35
6.6779088e-35
2.9123514e-39
4.3024215e-42
1.3909879e-43
8.3608605e-50
3.0686983e-40
2.0258633e-31
3.8612046e-28
2.0993931e-29
2.8888902e-33
2.7071718e-39
3.4045906e-38
1.0100051e-43
5.5696339e-31
1.6645389e-26
4.7593534e-24
1.1444517e-24
3.2900464e-28
6.1823831e-32
9.4511789e-30
2.4735188e-34
2.2657965e-28
4.0708629e-24
3.0405126e-22
5.7566957e-20
6.6140916e-23
2.7621581e-26
6.6111409e-25
9.0178598e-30
3.3545596e-25
7.2872385e-23
3.0343992e-21
2.2027393e-18
1.8201206e-20
1.8551248e-23
7.363729e-22
1.4263561e-26
1.6862738e-23
1.5141571e-21
4.1378065e-20
4.6641252e-19
8.0593811e-21
1.3223819e-22
1.5083982e-20
5.2866271e-25
1.2034743e-22
9.4903563e-21
4.1821641e-19
2.7174031e-18
7.9064741e-20
5.7028526e-21
1.8607924e-20
1.5900499e-26
1.2077787e-20
1.3643609e-19
3.1469813e-18
7.1120402e-18
5.044378e-19
1.3123515e-20
3.8780241e-18
1.0786816e-21
2.4023117e-49
3.0869765e-43
1.6613679e-38
3.8986966e-39
4.3024217e-42
6.0550745e-45
1.4618539e-46
2.3998715e-52
3.0887186e-43
2.4132589e-34
6.6887106e-31
2.5353981e-36
4.1525443e-39
4.3066508e-42
5.4560634e-41
1.4621337e-46
1.0345892e-33
4.8609919e-29
1.5179401e-26
5.0934034e-28
9.4121013e-34
9.5645717e-37
3.2053193e-36
2.3241084e-37
6.5567926e-31
1.6921762e-26
1.4900705e-24
7.7559967e-23
1.7508456e-25
1.0668744e-28
2.3439262e-27
3.6329541e-32
1.2917433e-27
4.0156961e-25
1.8148654e-23
1.303415e-20
9.6728879e-23
1.1440293e-25
3.7488865e-24
8.5977252e-29
8.384668e-26
1.0006185e-23
2.7337688e-22
3.2136879e-21
5.7888845e-23
9.4447497e-25
1.0228531e-22
3.7886326e-27
7.7764745e-25
7.1235809e-23
2.9632489e-21
1.8400796e-20
6.7686646e-22
4.906917e-23
9.0971962e-23
8.3811207e-29
8.3652868e-23
1.1145422e-21
2.5037677e-20
5.5810579e-20
4.9624972e-21
1.2953e-22
1.7317839e-20
7.5748565e-24
1.2449386e-52
3.3050125e-46
2.6820999e-41
5.9582399e-42
6.0550749e-45
8.9108961e-48
1.5731159e-49
4.2932266e-55
3.3074156e-46
2.6543495e-37
1.3003079e-33
3.9082813e-39
6.2129074e-42
6.0647615e-45
8.7121744e-44
1.5735756e-49
1.8196565e-36
1.4216964e-31
5.245631e-29
7.014843e-31
2.4856687e-36
2.2730499e-39
7.5160909e-39
8.7010055e-44
1.9093624e-33
7.1009648e-29
7.4665381e-27
2.8754542e-25
6.5976342e-28
5.0800819e-31
9.5084995e-30
1.0735358e-34
4.9959119e-30
2.2333499e-27
1.1562121e-25
7.7934758e-23
5.4863539e-25
7.3170823e-28
2.069814e-26
3.1827507e-31
4.1827238e-28
6.8783179e-26
2.1181497e-24
2.4757728e-23
4.3202308e-25
7.270627e-27
7.1483943e-25
1.8806806e-29
5.0605604e-27
5.7099689e-25
2.5775524e-23
1.6056833e-22
5.9301668e-24
4.668035e-25
6.1783741e-25
4.3834213e-31
6.3978786e-25
1.0479191e-23
2.3839021e-22
5.2890695e-22
5.0617946e-23
1.3554077e-24
1.4212315e-22
5.6686605e-26
3.3851342e-54
3.3976449e-49
4.0192274e-44
9.4525989e-45
8.9108966e-48
1.402571e-50
1.6797085e-52
5.9329447e-58
3.4009354e-49
3.125689e-40
2.8501732e-36
5.9805028e-42
9.4796537e-45
8.9326535e-48
1.3830483e-46
1.6804434e-52
3.1172011e-39
4.1864906e-34
1.8059646e-31
2.4586767e-33
6.2357218e-39
5.3090457e-42
1.770032e-41
1.3810152e-46
5.5881619e-36
2.9777998e-31
3.7327374e-29
1.2691872e-27
2.859224e-30
2.4888393e-33
3.9436529e-32
3.3133441e-37
1.9446807e-32
1.2448919e-29
7.3832271e-28
4.6307684e-25
3.2035899e-27
4.6394183e-30