/*--------------------------------*- C++ -*----------------------------------*\
  =========                 |
  \\      /  F ield         | OpenFOAM: The Open Source CFD Toolbox
   \\    /   O peration     | Website:  https://openfoam.org
    \\  /    A nd           | Version:  13
     \\/     M anipulation  |
\*---------------------------------------------------------------------------*/
FoamFile
{
    format      ascii;
    class       surfaceScalarField;
    location    "0.01";
    object      alphaPhi.water;
}
// * * * * * * * * * * * * * * * * * * * * * * * * * * * * * * * * * * * * * //

dimensions      [0 3 -1 0 0 0 0];

internalField   nonuniform List<scalar> 
150720
(
0
0
0
0
0
0
0
0
0
0
0
0
0
0
0
0
0
0
0
0
0
0
0
0
0
0
0
0
0
0
0
0
0
0
0
0
0
0
0
0
0
0
0
0
0
0
0
0
0
0
0
0
0
0
0
0
0
0
0
0
0
0
0
0
0
0
0
0
0
0
0
0
0
0
0
0
0
0
0
0
0
0
0
0
0
0
0
0
0
0
0
0
0
0
0
0
0
0
0
0
0
0
0
0
0
0
0
0
0
0
0
0
0
0
0
0
0
0
0
0
0
0
0
0
0
0
0
0
0
0
0
0
0
0
0
0
0
0
0
0
0
0
0
0
0
0
0
0
0
0
0
0
0
0
0
0
0
0
0
0
0
0
0
0
0
0
0
0
0
0
0
0
0
0
0
0
0
0
0
0
0
0
0
0
0
0
0
0
0
0
0
0
0
0
0
0
0
0
0
0
0
0
0
0
0
0
0
0
0
0
0
0
0
0
0
0
0
0
0
0
0
0
0
0
0
0
0
0
0
0
0
0
0
0
0
0
0
0
0
0
0
0
0
0
0
0
0
0
0
0
0
0
0
0
0
0
0
0
0
0
0
0
0
0
0
0
0
0
0
0
0
0
0
0
0
0
0
0
0
0
0
0
0
0
0
0
0
0
0
0
0
0
0
0
0
0
0
0
0
0
0
0
0
0
0
0
0
0
0
0
0
0
0
0
0
0
0
0
0
0
0
0
0
0
0
0
0
0
0
0
0
0
0
0
0
0
0
0
0
0
0
0
0
0
0
0
0
0
0
0
0
0
0
0
0
0
0
0
0
0
0
0
0
0
0
0
0
0
0
0
0
0
0
0
0
0
0
0
0
0
0
0
0
0
0
0
0
0
0
0
0
0
0
0
0
0
0
0
0
0
0
0
0
0
0
0
0
0
0
0
0
0
0
0
0
0
0
0
0
0
0
0
0
0
0
0
0
0
0
0
0
0
0
0
0
0
0
0
0
0
0
0
0
0
0
0
0
0
0
0
0
0
0
0
0
0
0
0
0
0
0
0
0
0
0
0
0
0
0
0
0
0
0
0
0
0
0
0
0
0
0
0
0
0
0
0
0
0
0
0
0
0
0
0
0
0
0
0
0
0
0
0
0
0
0
0
0
0
0
0
0
0
0
0
0
0
0
0
0
0
0
0
0
0
0
0
0
0
0
0
0
0
0
0
0
0
0
0
0
0
0
0
0
0
0
0
0
0
0
0
0
0
0
0
0
0
0
0
0
0
0
0
0
0
0
0
0
0
0
0
0
0
0
0
0
0
0
0
0
0
0
0
0
0
0
0
0
0
0
0
0
0
0
0
0
0
0
0
0
0
0
0
0
0
0
0
0
0
0
0
0
0
0
0
0
0
0
0
0
0
0
0
0
0
0
0
0
0
0
0
0
0
0
0
0
0
0
0
0
0
0
0
0
0
0
0
0
0
0
0
0
0
0
0
0
0
0
0
0
0
0
0
0
0
0
0
0
0
0
0
0
0
0
0
0
0
0
0
0
0
0
0
0
0
0
0
0
0
0
0
0
0
0
0
0
0
0
0
0
0
0
0
0
0
0
0
0
0
0
0
0
0
0
0
0
0
0
0
0
0
0
0
0
0
0
0
0
0
0
0
0
0
0
0
0
0
0
0
0
0
0
0
0
0
0
0
0
0
0
0
0
0
0
0
0
0
0
0
0
0
0
0
0
0
0
0
0
0
0
0
0
0
0
0
0
0
0
0
0
0
0
0
0
0
0
0
0
0
0
0
0
0
0
0
0
0
0
0
0
0
0
0
0
0
0
0
0
0
0
0
0
0
0
0
0
0
0
0
0
0
0
0
0
0
0
0
0
0
0
0
0
0
0
0
0
0
0
0
0
0
0
0
0
0
0
0
0
0
0
0
0
0
0
0
0
0
0
0
0
0
0
0
0
0
0
0
0
0
0
0
0
0
0
0
0
0
0
0
0
0
0
0
0
0
0
0
0
0
0
0
0
0
0
0
0
0
0
0
0
0
0
0
0
0
0
0
0
0
0
0
0
0
0
0
0
0
0
0
0
0
0
0
0
0
0
0
0
0
0
0
0
0
0
0
0
0
0
0
0
0
0
0
0
0
0
0
0
0
0
0
0
0
0
0
0
0
0
0
0
0
0
0
0
0
0
0
0
0
0
0
0
0
0
0
0
0
0
0
0
0
0
0
0
0
0
0
0
0
0
0
0
0
0
0
0
0
0
0
0
0
0
0
0
0
0
0
0
0
0
0
0
0
0
0
0
0
0
0
0
0
0
0
0
0
0
0
0
0
0
0
0
0
0
0
0
0
0
0
0
0
0
0
0
0
0
0
0
0
0
0
0
0
0
0
0
0
0
0
0
0
0
0
0
0
0
0
0
0
0
0
0
0
0
0
0
0
0
0
0
0
0
0
0
0
0
0
0
0
0
0
0
0
0
0
0
0
0
0
0
0
0
0
0
0
0
0
0
0
0
0
0
0
0
0
0
0
0
0
0
0
0
0
0
0
0
0
0
0
0
0
0
0
0
0
0
0
0
0
0
0
0
0
0
0
0
0
0
0
0
0
0
0
0
0
0
0
0
0
0
0
0
0
0
0
0
0
0
0
0
0
0
0
0
0
0
0
0
0
0
0
0
0
0
0
0
0
0
0
0
0
0
0
0
0
0
0
0
0
0
0
0
0
0
0
0
0
0
0
0
0
0
0
0
0
0
0
0
0
0
0
0
0
0
0
0
0
0
0
0
0
0
0
0
0
0
0
0
0
0
0
0
0
0
0
0
0
0
0
0
0
0
0
0
0
0
0
0
0
0
0
0
0
0
0
0
0
0
0
0
0
0
0
0
0
0
0
0
0
0
0
0
0
0
0
0
0
0
0
0
0
0
0
0
0
0
0
0
0
0
0
0
0
0
0
0
0
0
0
0
0
0
0
0
0
0
0
0
0
0
0
0
0
0
0
0
0
0
0
0
0
0
0
0
0
0
0
0
0
0
0
0
0
0
0
0
0
0
0
0
0
0
0
0
0
0
0
0
0
0
0
0
0
0
0
0
0
0
0
0
0
0
0
0
0
0
0
0
0
0
0
0
0
0
0
0
0
0
0
0
0
0
0
0
0
0
0
0
0
0
0
0
0
0
0
0
0
0
0
0
0
0
0
0
0
0
0
0
0
0
0
0
0
0
0
0
0
0
0
0
0
0
0
0
0
0
0
0
0
0
0
0
0
0
0
0
0
0
0
0
0
0
0
0
0
0
0
0
0
0
0
0
0
0
0
0
0
0
0
0
0
0
0
0
0
0
0
0
0
0
0
0
0
0
0
0
0
0
0
0
0
0
0
0
0
0
0
0
0
0
0
0
0
0
0
0
0
0
0
0
0
0
0
0
0
0
0
0
0
0
0
0
0
0
0
0
0
0
0
0
0
0
0
0
0
0
0
0
0
0
0
0
0
0
0
0
0
0
0
0
0
0
0
0
0
0
0
0
0
0
0
0
0
0
0
0
0
0
0
0
0
0
0
0
0
0
0
0
0
0
0
0
0
0
0
0
0
0
0
0
0
0
0
0
0
0
0
0
0
0
0
-1.0142481e-34
-5.0017823e-37
5.4751937e-35
1.1610297e-37
-4.7858297e-38
-2.1787909e-35
1.3689967e-32
-1.2064902e-39
-1.1774756e-33
1.177429e-33
2.531518e-70
-2.4174837e-35
2.4173631e-35
-6.7903678e-71
4.0218724e-67
-9.2936105e-69
-2.8400131e-73
8.288363e-70
-1.2742085e-71
-3.1865668e-76
2.8342099e-72
-4.1648779e-74
-1.9944284e-38
6.8463702e-36
-6.826426e-36
-2.9288975e-33
-2.6654804e-31
2.6947451e-31
1.9215839e-36
-2.7091037e-32
-3.7774528e-29
3.7798668e-29
-4.28638e-34
-1.8194482e-28
1.8191698e-28
8.4080423e-67
1.2182811e-63
6.4805896e-33
-1.3142578e-67
4.4039425e-64
-3.44303e-65
-8.981583e-70
8.2782707e-67
-4.9003394e-68
-1.7618009e-72
4.8056237e-69
-2.5302119e-70
-2.0254772e-50
1.712278e-33
-1.7122979e-33
-1.1967493e-29
-1.5524155e-29
1.8782229e-29
5.4282232e-32
-1.3777057e-27
-4.0039677e-28
2.3998696e-27
7.028298e-63
-2.3939794e-31
2.1385654e-26
3.7007282e-64
6.0954094e-60
-1.229449e-61
-4.8812607e-65
1.1347073e-61
-1.7568457e-62
-5.2948585e-67
2.3352652e-64
-3.1694962e-65
-1.3386047e-69
1.746956e-66
-1.9664473e-67
-3.4757354e-54
4.5303165e-46
-4.530519e-46
-5.5112868e-28
-7.6303175e-35
1.0326829e-27
2.1406499e-30
-9.7494356e-31
-3.3596954e-31
1.4771306e-26
1.8564672e-59
2.1095873e-59
1.1492739e-27
5.568131e-62
1.1581466e-57
-3.7685884e-58
-6.3796752e-63
1.1301424e-59
-3.0928734e-60
-1.0924526e-64
2.6016939e-62
-7.1614289e-63
-3.2032688e-67
2.1506698e-64
-4.7736451e-65
-1.2406189e-51
3.6243918e-50
-3.5006775e-50
-3.4004944e-31
2.9954996e-61
3.3996449e-31
8.6395873e-36
5.5904089e-59
3.4141789e-59
1.469141e-29
2.2453078e-57
1.5760998e-57
-1.0169922e-57
3.8170039e-60
8.8913275e-56
-5.2988035e-56
-2.8198223e-61
4.9648733e-58
-2.4523037e-58
-9.2714816e-63
1.2459793e-60
-6.8422104e-61
-3.103377e-65
1.0801848e-62
-4.8503098e-63
-6.127773e-62
7.7862581e-48
-7.7874987e-48
2.8034251e-59
7.1909095e-60
-4.5462648e-60
-3.0344929e-62
3.0044149e-57
8.0931333e-58
-8.33663e-58
1.2143622e-55
4.153765e-56
-6.1747325e-56
1.2873679e-58
2.4330961e-54
-3.3324956e-54
1.6806408e-63
8.2378194e-57
-9.3535537e-57
-3.4123341e-61
2.1997672e-59
-2.9707114e-59
-1.2567065e-63
1.9004641e-61
-2.1922775e-61
3.0443785e-64
2.691046e-58
-2.6916744e-58
5.6814321e-58
2.0874309e-66
-1.0013126e-58
-6.8472478e-61
6.0422772e-56
1.5847082e-64
-1.813072e-56
2.5049922e-54
4.6870766e-63
-1.4134202e-54
1.7836602e-57
1.9581163e-66
-7.9916644e-53
8.8984016e-61
2.4218627e-68
-1.4243619e-55
-4.5862018e-60
1.189448e-70
-5.0698961e-58
-1.7140131e-62
1.8421495e-72
-3.6642771e-60
1.1636052e-64
-5.4722941e-63
-2.6256919e-62
9.8934583e-65
-2.7747664e-65
-1.89583e-67
3.4296816e-72
5.4115217e-63
-3.4013873e-63
2.2661552e-70
1.5949691e-66
-1.448737e-61
7.9991675e-69
4.6730938e-69
-5.9055806e-65
1.6404775e-70
1.0161509e-71
-4.0064795e-67
4.6631903e-72
-1.773891e-71
-2.7899734e-69
2.7248643e-74
-1.1721774e-73
-3.5166758e-71
-3.7125606e-74
-1.9905872e-63
-2.7492727e-66
-2.1806144e-70
-3.5310266e-27
-1.1505479e-25
2.3006029e-28
1.1835575e-25
-3.4300563e-24
-2.3291879e-26
4.2409478e-25
-1.2244695e-20
-8.3434161e-22
2.6583415e-21
-2.2510079e-23
-2.7276101e-20
9.1953954e-20
6.8111508e-23
-2.7280133e-21
2.2998076e-21
6.995139e-28
-4.9270021e-25
6.8603508e-23
0
-1.903796e-27
2.6033099e-27
-3.5605518e-33
8.1322102e-21
-4.6307062e-31
-1.0358111e-24
0
2.7931389e-23
0
-1.3340022e-22
-1.5566747e-30
2.9056488e-23
-1.4204707e-19
-1.0433202e-29
4.5332578e-20
-2.5761166e-22
-1.1120905e-28
1.3130001e-18
7.1674829e-24
-8.8077801e-24
4.3609058e-20
2.4803175e-26
-3.7227697e-25
4.3961399e-24
-1.2755786e-34
-5.7740271e-29
4.1885282e-26
-8.6430028e-29
1.0091038e-28
-1.4482291e-29
-2.0466213e-30
-5.6015281e-25
7.3157316e-28
5.5943361e-25
-9.8899978e-30
-1.1409515e-29
2.415116e-27
-2.1508215e-28
-2.1928538e-28
2.1784936e-26
-1.0392888e-25
-6.5616612e-25
7.5975209e-25
1.7121905e-25
-2.8304764e-23
1.9221836e-23
2.76338e-26
-1.0785327e-23
4.3199587e-24
-2.5662696e-30
-1.0846938e-25
1.3604801e-25
-6.5555881e-26
5.0454171e-25
-4.3907482e-25
-1.0258698e-29
-1.7039124e-21
6.4703832e-24
1.696884e-21
-1.6938236e-28
-1.5569938e-30
1.5074409e-26
-7.1595178e-25
-2.045339e-27
7.193054e-25
-1.3174802e-22
-5.6448559e-24
8.7056633e-24
4.0176781e-22
-8.6984774e-20
2.6687846e-20
2.2477015e-23
-1.2280275e-20
3.5710578e-21
-1.2455346e-27
-1.1870324e-22
1.4107303e-22
-5.6803023e-25
1.6407413e-22
-1.635729e-22
-1.4686949e-30
-2.2179852e-30
2.8276658e-20
2.6468843e-22
-2.1318169e-27
-9.2487324e-28
3.0760875e-27
-4.077325e-24
-2.1775023e-26
4.0949229e-24
-1.128678e-20
-4.3924463e-23
1.1320982e-20
2.8692099e-20
-1.250699e-18
1.9783553e-18
2.1083029e-22
-3.3206147e-19
2.9447078e-19
-3.8348099e-27
-7.591951e-22
5.5593051e-22
-6.1975326e-25
8.2244548e-22
-8.2239759e-22
-4.9776187e-28
-1.2187227e-27
1.7142665e-27
0
-1.6907212e-26
-1.2516574e-24
1.267142e-24
-2.3206863e-23
-7.6005796e-24
3.0768761e-23
-4.2355195e-20
-1.9652685e-20
6.1932804e-20
7.139805e-20
-1.143359e-18
7.1082223e-18
1.7955608e-21
-5.2687473e-19
1.5886186e-18
-9.0585902e-27
-1.4088443e-20
2.6849947e-20
-3.2293974e-23
5.8575008e-22
-5.5408492e-22
-5.6644927e-25
-6.6578835e-25
1.2308699e-24
1.4904115e-28
-1.2227054e-24
-1.0299173e-21
1.0293219e-21
-1.6127318e-22
-9.5682107e-24
1.2030443e-22
-4.3233149e-20
-7.7549588e-21
1.5098314e-19
4.2026313e-20
-6.1187814e-19
6.7444215e-18
3.3213747e-21
-2.685971e-19
1.9009256e-18
-6.0856725e-25
-6.4787297e-20
1.7131281e-19
-2.2488e-22
1.4642168e-22
-3.9668605e-27
-5.2480806e-22
5.4706836e-22
7.5635852e-26
-2.3001725e-23
-2.1697834e-23
1.1764656e-20
-3.1584776e-21
-1.072803e-22
3.2714436e-22
-1.9435058e-22
-1.4637248e-20
5.3453263e-20
-6.2236704e-22
6.7925393e-21
1.5420205e-18
-2.6469381e-24
2.9607621e-21
8.3064527e-19
-1.7645174e-19
-6.4527045e-24
4.2543137e-19
-1.3675259e-19
1.4717805e-20
-1.7833931e-22
-2.90646e-20
-1.2218554e-25
-5.5906139e-26
7.996641e-28
2.0390186e-25
-2.9226702e-23
-3.7419857e-24
5.072991e-24
-6.4559192e-20
-2.6343865e-22
6.3382022e-21
-1.1699024e-25
-4.5040843e-21
2.5569432e-19
1.2681678e-25
-3.0718812e-23
2.3441929e-21
-3.9783635e-18
-9.7240742e-26
3.9784316e-18
0
-9.3422045e-16
9.6269024e-16
-4.3712367e-18
2.9432598e-18
-9.2154061e-24
-2.9941599e-22
-3.0825006e-22
1.3462869e-24
6.3419821e-22
-2.3573688e-21
-4.7409364e-20
4.1202358e-21
-1.4234707e-19
0
3.7924723e-20
-3.2331075e-24
0
8.3616796e-19
1.0497867e-24
-2.0776485e-25
4.3572686e-20
1.0689606e-26
-1.4020956e-25
3.9697604e-24
0
-1.9250014e-15
8.8335005e-15
-2.963927e-17
7.2132359e-17
-6.2182755e-22
-5.4513344e-21
0
2.9475524e-21
0
-1.777868e-18
-7.8118636e-20
4.1786734e-19
-1.1447183e-17
-2.8628896e-17
2.064075e-17
-1.8031322e-26
-1.5116172e-16
1.6717412e-16
4.1138184e-27
-5.5890022e-23
7.4062015e-23
0
-4.4871549e-24
7.1537255e-24
1.070831e-16
-1.9562416e-15
1.0392361e-14
-3.2259229e-17
1.3704732e-16
-8.775997e-19
-4.8812573e-21
-6.2496411e-22
1.6805729e-20
-1.1273838e-20
-3.0750857e-19
-2.4638955e-19
4.7528206e-19
-1.8082333e-16
-9.3097229e-17
3.0724681e-16
-4.4960647e-24
-1.9974116e-16
1.4576656e-15
1.4700341e-24
-4.3667049e-21
3.0991166e-20
0
-5.9796908e-22
4.1644948e-21
3.7146903e-18
-6.2161855e-22
2.682515e-16
-1.0588741e-17
4.6745855e-17
-4.4652217e-19
-1.2408259e-19
-4.4614635e-19
7.8739713e-19
0
0
-1.073712e-18
2.8093547e-18
-1.266751e-16
-3.3614354e-17
2.0842687e-16
-3.9223012e-20
-1.5460447e-16
1.0971992e-15
7.7919485e-23
-1.9100463e-20
1.9537225e-18
6.2035797e-23
-4.398621e-21
2.9827096e-19
0
-5.9159828e-23
2.3795211e-23
-1.7612164e-18
6.0251063e-18
-2.3450143e-20
-1.8409962e-19
-1.5787313e-18
4.765969e-18
0
-7.1482947e-19
-4.2581148e-19
2.3576832e-18
-3.7499164e-18
-2.0681418e-18
1.6091626e-17
-2.7825014e-21
-1.2260414e-19
3.9753432e-17
1.512554e-22
-1.2595424e-20
7.1075971e-18
3.7357321e-22
-6.0590557e-21
1.5900743e-18
0
-3.9968498e-22
2.753371e-20
-1.0192686e-18
2.0732207e-18
-1.6735562e-21
-6.4580298e-20
-1.2085451e-18
4.1776268e-18
0
-3.9471244e-20
-1.2578436e-20
5.2822459e-19
0
-3.0259525e-21
1.782817e-19
-1.2114426e-21
-6.2215403e-22
1.2346759e-20
5.9477618e-24
-4.9211252e-21
6.7280211e-18
5.3084034e-22
-3.1715721e-21
1.898002e-18
2.0745963e-23
-1.979751e-21
1.7341955e-19
-4.6883324e-19
2.2774859e-18
-1.5579219e-24
-2.2259697e-21
3.4666213e-18
-1.9243095e-21
-6.9477535e-19
-5.1206669e-23
1.6930413e-20
-2.0842083e-20
-1.0779876e-22
3.1685383e-22
-2.8936159e-21
-1.8274704e-22
3.5162382e-20
-3.8828951e-22
-2.1816637e-23
1.5369393e-18
-1.5332629e-25
3.1992971e-22
8.307396e-19
-1.2963012e-21
1.1360931e-22
6.4071289e-19
-2.165896e-19
1.1337561e-18
-3.220632e-21
-1.0398932e-19
-1.3466728e-26
-2.2588184e-26
2.3817085e-26
1.5457362e-26
-1.0461217e-23
-6.9769867e-23
8.5271526e-23
-6.6681672e-22
-2.3761387e-20
3.0756494e-20
4.0071404e-18
-3.8409782e-18
8.9265531e-20
1.9744777e-13
-1.9871625e-13
1.7057025e-12
-9.815706e-16
9.6082645e-13
9.7324866e-13
-2.9884815e-18
-1.6352021e-17
1.1652268e-18
-3.4527213e-18
4.7888009e-19
-2.2611264e-18
-6.6168013e-23
-4.8893842e-23
1.1634126e-22
2.5927886e-26
-1.0463598e-21
0
9.0595517e-21
-6.762463e-19
-4.265016e-18
4.9547646e-18
-5.0160714e-16
-4.8030973e-17
5.4602457e-16
-4.5955539e-13
-1.4449148e-13
1.0508178e-12
-8.8508312e-15
1.0059528e-12
1.6008135e-12
-3.6673465e-17
-2.2316177e-17
2.5900386e-17
-2.075304e-17
3.0637452e-18
-1.5197776e-17
-5.9595264e-20
-2.5628125e-21
6.4949583e-20
1.063374e-22
0
-3.8195453e-18
1.1594682e-18
0
-7.6295968e-17
9.5716275e-17
0
-3.7655242e-18
4.534971e-15
-7.8649562e-13
-1.5976676e-14
1.0276219e-12
-1.0374949e-14
1.0717117e-12
2.3721555e-12
-4.8541284e-17
-6.7662277e-19
4.467673e-17
-3.9336391e-17
2.6956909e-17
0
-6.9832312e-19
-1.3636691e-19
7.4562873e-21
8.4023222e-19
-4.3574982e-17
-5.7879359e-18
1.9819436e-17
-4.8841994e-18
-1.853153e-16
2.4550589e-16
-1.5553032e-15
-5.9265795e-18
2.6130248e-15
-3.2726257e-13
-4.4327263e-16
5.386203e-13
-3.3640074e-16
9.0980005e-13
3.5751894e-12
-1.2864174e-17
-5.7696643e-17
1.8077624e-18
-1.6618236e-18
1.5410418e-17
-1.5996795e-18
-1.1322828e-19
-2.1289038e-18
1.0650316e-18
2.0865527e-18
-1.7865157e-17
-2.8824585e-18
1.3996368e-17
-1.2618272e-17
-1.5537407e-17
7.567695e-17
0
-7.0980921e-19
6.8808916e-16
-2.2363049e-13
-2.9765435e-16
2.2348683e-13
-1.9359469e-14
4.7788613e-13
3.037678e-12
-4.760024e-18
-1.9539491e-14
1.2708581e-16
-1.7886702e-20
3.4995177e-20
-4.2300782e-19
-5.4139039e-19
-4.1060616e-18
7.7799158e-18
5.7956372e-19
0
-5.3918253e-19
1.9350252e-18
-1.2095874e-19
-3.2164969e-20
7.6418945e-19
-7.6312895e-17
-1.4474597e-18
1.1685876e-16
-1.2917578e-13
-1.8678304e-15
1.3067679e-13
-6.0442556e-14
7.5691989e-14
2.1363708e-12
-3.4072129e-18
-3.1236201e-14
5.0235149e-14
-2.5466896e-20
2.0692657e-20
-1.3661668e-18
-6.9179859e-20
-3.9475513e-18
8.8790388e-18
6.9852362e-19
-2.6673428e-21
-1.8430504e-20
4.0681165e-19
-2.865697e-19
-1.4993639e-21
4.3673252e-19
-2.1158938e-16
-4.36185e-20
2.0989534e-16
-8.0273419e-14
0
1.2185956e-13
-3.5520688e-14
0
8.8140775e-13
-3.0224027e-18
-4.1069701e-14
5.6189293e-14
-2.4652609e-20
2.8816888e-20
-7.8435544e-19
-2.8610055e-20
7.2406224e-18
3.7730497e-19
-2.6220989e-18
-5.5462855e-22
2.8530726e-20
-1.0784572e-19
-3.9129097e-22
2.9638113e-19
-2.9780705e-19
-1.2019474e-17
1.2189426e-17
-1.8665811e-19
-1.2764896e-14
1.2759648e-14
-5.2257866e-18
-9.3558794e-16
3.5204237e-13
6.3597481e-14
-1.3099071e-18
4.6484113e-14
-1.5095614e-16
2.6931016e-20
-2.0512871e-19
-4.2484318e-20
-1.5084988e-15
-1.0918793e-14
5.5393482e-14
-4.4980557e-14
0
-6.8257774e-18
3.7555475e-14
-3.6395982e-15
-1.7632068e-17
3.6572614e-15
-5.6805245e-14
-3.0579864e-15
2.3787143e-13
-5.3368475e-13
5.8662594e-13
1.871919e-12
-2.0926456e-18
9.6345102e-13
4.2143796e-13
-2.2121747e-19
-9.3723914e-20
5.0431685e-20
-2.3719715e-18
3.7720045e-20
-8.7278421e-19
-1.3484746e-19
0
7.9151748e-14
-1.958873e-14
-1.076196e-17
-1.7768856e-18
5.5897636e-18
-3.7900345e-15
-8.3518099e-17
3.8499684e-15
-1.2978843e-13
-1.0495797e-14
7.01332e-14
-5.3025479e-13
5.4045522e-14
2.9155083e-12
-3.2882351e-17
1.2952313e-12
1.14527e-12
-6.841877e-18
-1.0550892e-20
1.5442933e-19
-2.7458583e-18
2.5410722e-18
-1.7904643e-17
4.1261709e-17
0
2.3994101e-15
0
-6.9664347e-17
-2.5199224e-18
1.1268933e-16
-1.9625427e-14
-8.8683174e-17
1.9656845e-14
-1.0937935e-13
-1.4594185e-14
3.1594719e-14
-6.4821729e-13
-9.8849993e-13
3.1194555e-12
-4.7912023e-17
1.3761369e-12
1.7971743e-12
-3.3742341e-18
8.0088405e-20
2.0006683e-19
-5.9691225e-20
1.8252414e-17
-1.8673466e-19
2.2000728e-19
-5.354015e-18
7.8435281e-18
-4.3008732e-22
-7.0622256e-17
-6.4615296e-19
8.9006859e-17
-1.820361e-14
-1.0626496e-17
1.8300768e-14
-1.6228219e-13
-1.4996152e-15
1.4901489e-13
-9.6711818e-13
-1.4148103e-12
2.7287468e-12
-1.9856387e-18
2.0159594e-12
2.1241595e-12
-7.006009e-20
1.3858694e-20
2.1695002e-20
-1.7144245e-21
1.5626497e-17
-3.626387e-19
2.5316427e-20
-9.390369e-18
5.5984306e-18
0
-6.953171e-18
-2.8464401e-19
2.0761807e-17
-1.1520135e-15
-8.7581557e-18
1.2190787e-15
-2.436995e-13
-1.2581014e-15
2.430166e-13
-1.0888494e-12
-1.534774e-12
2.2575096e-12
-1.2583875e-16
1.8267526e-12
2.3009018e-12
-1.1018808e-21
4.8509536e-19
7.677647e-19
-1.8296919e-21
1.9850252e-20
-5.7742495e-21
-1.6032234e-20
-9.8053122e-18
5.3224936e-18
0
-8.4797883e-19
-8.955465e-20
2.6667996e-18
-4.3622561e-16
-5.1297682e-18
4.3265433e-16
-1.8286634e-13
-1.0880609e-15
1.8237857e-13
-1.0602969e-12
-1.0995462e-12
1.9868173e-12
-4.9687211e-14
6.4700739e-13
2.6508689e-12
-7.863396e-22
2.0801748e-16
3.4038799e-16
-1.4854139e-20
3.3056997e-20
-1.9782488e-20
0
-4.681512e-18
3.8079111e-18
0
-6.0686754e-19
-4.8907958e-20
1.0338823e-18
-1.7062534e-16
-1.3008096e-18
1.666805e-16
-5.6525908e-14
-4.1667565e-16
5.5899734e-14
-7.7858241e-13
-4.4805523e-13
1.0404434e-12
-5.5664962e-14
1.4401627e-13
2.8564707e-12
-6.1505808e-20
3.2055623e-16
4.1184364e-16
-4.8395163e-20
1.5725537e-18
-1.5898703e-18
-9.4060717e-22
1.5843757e-18
-2.8674032e-19
-2.1334058e-19
-2.3219599e-19
2.5455305e-19
-3.5650354e-20
-7.4128915e-17
7.2908195e-17
-1.0923352e-20
-2.7896157e-14
2.7417695e-14
-4.1890674e-20
-4.2850402e-13
4.3668338e-13
-1.5244665e-14
-3.2660287e-14
2.2187454e-12
2.1660521e-14
-4.0283515e-18
7.3701494e-16
1.6710894e-16
7.9312244e-20
-1.3332625e-19
-4.0051379e-18
7.4510808e-17
-3.0159242e-16
5.5967515e-14
7.0229917e-17
2.5509139e-14
-5.8089132e-14
7.1165679e-14
-5.8743248e-13
1.0471389e-12
9.5652957e-12
-1.116255e-12
-2.3802618e-13
2.8935558e-12
-1.1714117e-12
-5.4890124e-13
1.2373295e-12
-1.8448122e-14
-9.3104521e-13
9.6010697e-13
-1.8473774e-14
-9.0266378e-20
2.6497282e-17
-2.2571021e-17
1.078431e-14
-2.3624201e-19
-1.2439604e-15
-2.9346867e-17
7.963097e-14
1.8810976e-16
-7.3463218e-13
-1.0888596e-14
2.9180077e-13
-6.5563187e-13
2.0293066e-12
-3.561245e-12
-1.8058722e-12
-1.1383042e-12
3.8072712e-12
-1.45539e-12
-5.3740426e-13
2.9624379e-12
-7.8839589e-17
-2.5259517e-12
1.6911836e-12
-7.8528063e-17
5.8833397e-20
2.8665914e-19
-9.9128545e-16
3.8331918e-17
-2.7602373e-17
-4.9692394e-16
-3.018002e-18
3.9548453e-15
-1.1073392e-15
-8.3749966e-13
-6.3438479e-15
8.3257088e-13
-6.527978e-13
1.0170145e-12
1.0747939e-12
-1.4824999e-12
-1.607815e-12
8.1579978e-13
-1.4069245e-12
2.561986e-13
2.6435471e-12
-2.5693113e-15
-3.1673901e-12
1.3479569e-12
-2.5799939e-15
5.2396201e-18
6.0649718e-18
-6.0526435e-15
1.432343e-15
-6.2108881e-16
-5.7653634e-17
-3.2507306e-17
7.4154738e-17
-1.0065402e-18
-1.9711301e-13
-4.8792795e-14
2.3959364e-13
-2.3488981e-13
8.7999316e-13
4.0716766e-12
-6.5223444e-13
-1.4777909e-12
4.3847783e-13
-8.8406029e-13
2.0915424e-12
1.5009584e-12
-9.2792396e-15
-2.4908386e-12
9.3806152e-13
-9.3394893e-15
3.6129056e-17
2.9527621e-17
-5.5414431e-15
9.1425928e-15
-7.1269895e-15
-7.2176313e-16
-6.9986521e-18
9.0335219e-17
-3.9489591e-19
-1.9369681e-15
-5.9214023e-17
8.5279015e-14
-2.6065966e-13
1.8697715e-14
1.1212598e-12
1.4038173e-14
-2.6631333e-12
3.6717069e-12
-7.4397729e-13
3.1741908e-12
2.2919226e-12
-2.1206131e-15
-1.5569822e-12
1.11751e-12
-2.114492e-15
1.8668845e-17
1.2860239e-17
-2.2547904e-15
4.1133601e-15
-7.0911948e-15
-5.4425048e-19
-1.5262812e-18
9.2830928e-19
-9.1532512e-20
-9.9401827e-16
-1.0911897e-17
9.4798064e-16
-2.4985418e-13
2.8484326e-15
2.6514116e-13
-1.9250008e-13
-2.0505685e-12
3.2014415e-12
-1.4900735e-12
9.2138367e-13
2.8608585e-12
-7.716454e-16
-9.5835899e-13
1.3012406e-12
-4.3250318e-16
1.591405e-17
1.0520905e-17
-4.1254872e-15
5.8171541e-16
0
-5.2957243e-19
-1.9674991e-18
3.2760329e-18
-8.7207547e-20
-5.2797867e-16
-8.9373733e-18
5.2657029e-16
-1.1140096e-13
1.187771e-15
1.1270632e-13
-2.6693471e-13
-8.0579225e-13
6.7329833e-13
-1.4017858e-12
0
1.5891557e-12
-2.9107809e-15
-7.4120745e-14
1.9296862e-12
-2.5684749e-15
2.4411403e-17
1.9734323e-17
-4.6311986e-18
6.1452015e-15
-3.4841686e-19
-7.4815231e-19
2.9851769e-17
-7.776566e-19
-2.9621812e-17
-4.7466053e-16
5.0103036e-16
-3.5751858e-17
-7.9311306e-14
7.9648347e-14
4.5105349e-16
-3.0573834e-14
2.8081194e-13
-2.4176017e-13
-1.3145385e-12
9.964343e-13
1.4566743e-13
-7.4993368e-16
2.7703773e-12
-6.6206452e-13
-2.7933605e-19
1.329567e-17
0
8.449361e-17
-2.0808789e-19
-8.9167252e-17
2.0938701e-11
7.0442627e-12
-5.3399267e-14
-8.9151489e-13
-1.3860699e-11
4.7962895e-11
-3.8794199e-14
-1.7687021e-12
-4.7087185e-12
1.5770624e-11
0
-4.6143708e-12
6.1862063e-12
0
4.021721e-13
6.521058e-13
1.5332299e-13
-2.4312462e-13
5.7973489e-14
0
1.363941e-14
3.7988466e-14
-1.3950181e-18
1.1388071e-13
-2.2702869e-19
3.3382945e-11
-1.8049306e-13
8.2916715e-13
-9.653105e-13
0
8.1380619e-11
-7.0054528e-14
2.0134498e-11
-2.4527087e-12
1.0598705e-11
1.2906664e-13
-4.6073001e-12
1.9488067e-11
6.3549733e-14
6.9615981e-13
9.0126313e-13
-9.3800274e-16
-3.9062476e-13
8.1392178e-13
-4.5731841e-18
2.4282096e-14
5.3877057e-14
-6.8666948e-18
7.1257689e-17
-4.7874367e-17
2.3190572e-11
-6.6558619e-13
1.1496783e-12
-3.8372762e-13
5.2658651e-11
1.4152268e-10
-1.7231999e-13
1.1959441e-11
4.3368213e-11
1.9114092e-11
-2.5698422e-13
1.814111e-13
8.6410939e-12
-3.0387651e-13
5.7328097e-13
1.1271893e-12
-2.3979536e-14
-1.2572292e-12
8.3661508e-13
-1.4686391e-17
5.5708229e-17
2.661839e-16
-1.6147002e-15
3.0314555e-15
-2.2153274e-17
-4.2961447e-12
5.6283987e-14
1.2340083e-12
0
3.1563586e-11
5.5023184e-11
1.2373516e-11
4.320814e-13
5.5345128e-11
4.2311483e-11
-1.8332501e-12
-2.5057928e-13
5.8084246e-12
-7.1944604e-13
-5.537111e-13
8.5414343e-13
-2.1219401e-15
-7.082792e-13
5.1344682e-13
-2.1276996e-15
4.7081023e-18
2.3047755e-17
-3.8341556e-15
5.8919138e-15
-9.0644986e-15
0
4.8502436e-16
2.1191063e-14
0
1.0065171e-11
0
5.5361811e-12
-3.8143733e-12
5.5490626e-11
3.040082e-11
-1.7936859e-12
4.0749236e-13
6.649191e-12
-8.6850518e-13
-1.1021421e-12
5.5755993e-13
-4.8069229e-15
-2.8360394e-14
5.7560997e-13
-4.8392984e-15
8.6532816e-18
5.0058713e-17
0
6.7046429e-15
-1.9380158e-14
-2.1672375e-14
4.6566978e-15
1.7556906e-14
0
-9.1138955e-12
8.5473241e-12
2.8965594e-12
-5.8223837e-12
4.0293249e-11
2.4740504e-11
-4.0572311e-13
1.2869198e-13
2.5470318e-12
-1.9706995e-13
-4.7135289e-13
1.6698752e-13
-1.9087111e-16
1.8685553e-13
6.2457002e-13
-1.8619545e-16
3.8676155e-18
2.3690657e-17
-6.9442754e-17
5.9109915e-16
-3.7196509e-17
-5.0125868e-14
1.5201739e-14
3.9581186e-14
0
-9.4835364e-12
1.628699e-11
4.0267346e-12
-6.7753537e-13
6.9456948e-12
2.7644404e-11
0
7.3437421e-13
-4.685842e-13
1.5309986e-14
2.2273149e-14
8.85914e-14
-3.966731e-14
8.1571019e-14
1.3247878e-12
-1.4282874e-14
2.057504e-14
5.5367942e-14
-2.0995309e-14
1.9585171e-14
0
-7.7344584e-14
7.9566513e-14
3.7899697e-16
1.2632908e-14
-7.2241939e-12
5.4709895e-12
1.2540864e-11
-9.3161777e-14
1.9401045e-11
0
0
-8.6554647e-13
3.0908284e-13
5.2729581e-14
5.0754742e-14
1.9000087e-13
2.3190153e-13
9.2261676e-13
5.0938906e-15
-2.0616602e-14
2.0288702e-13
5.1363454e-14
9.558375e-14
-2.4869435e-14
-3.4698068e-14
1.0579028e-13
-2.0329864e-13
-3.6436731e-15
-1.9132985e-14
6.3620366e-14
-4.2219927e-14
-5.2411747e-14
9.3225382e-12
9.5935646e-12
1.0261121e-11
5.4291158e-13
-1.4490694e-11
1.9728419e-11
2.3683265e-15
3.4330388e-13
5.7468733e-13
0
5.2008332e-14
4.2165219e-15
6.1886125e-14
-8.0576332e-15
3.7659662e-14
1.0054479e-13
5.4276372e-13
-1.8747089e-15
9.6843338e-13
-6.8423565e-13
2.0069737e-15
-1.1455108e-13
3.8609454e-14
2.5649206e-14
-5.170995e-14
-5.0107634e-12
2.2474517e-11
2.1978531e-11
-6.9438573e-13
-1.9987873e-11
2.0261709e-11
0
-3.8775092e-13
3.3331084e-13
6.1519869e-14
2.032979e-13
2.8136086e-14
0
-1.4382373e-14
8.5519053e-14
3.7254643e-16
1.0406619e-12
-4.6262189e-14
1.282502e-12
-8.9355048e-13
2.9475538e-13
-1.7028208e-13
6.5094066e-13
2.3427927e-14
-3.369727e-13
1.4285348e-11
4.1473699e-11
5.9933391e-12
0
-3.8385966e-14
-1.1554438e-12
7.49174e-14
-4.9416206e-13
2.1292553e-12
2.0509901e-14
-6.7503151e-14
9.6618846e-14
0
-1.4224834e-14
8.5155806e-14
-2.0643204e-13
9.1725667e-13
-6.9436164e-14
4.7911299e-13
-9.2209e-14
9.2145499e-14
-5.7181311e-14
1.211853e-11
3.725161e-14
7.9297038e-14
1.154442e-11
6.2026606e-11
3.6640033e-11
8.7977163e-14
1.6215878e-11
-9.3526736e-13
1.6208068e-15
-3.5605444e-13
9.9730801e-13
5.9939626e-14
-8.3863478e-13
4.2684379e-14
0
0
1.2594461e-14
-3.0761282e-14
2.4989709e-13
-1.3960021e-14
3.057519e-14
-9.3252675e-14
1.2031651e-14
-1.4923337e-14
4.9867131e-12
5.5762789e-14
2.8730815e-14
4.8241015e-12
6.9829275e-11
3.5469932e-11
0
2.8023623e-12
1.0408532e-11
0
-1.212314e-13
1.3057326e-13
-1.0589006e-14
-1.1927656e-12
5.7376372e-14
-1.3608337e-15
-2.2538258e-13
2.0588993e-13
-2.4167584e-15
8.863519e-14
-1.309407e-14
4.2316546e-14
-3.3489209e-13
1.0276268e-13
0
1.6984439e-13
4.9526583e-13
5.242892e-13
1.0117851e-11
6.8374887e-11
2.8870421e-11
1.2741647e-13
-2.9245074e-12
1.2259746e-11
0
-5.2058705e-14
9.9394169e-14
4.0000464e-15
-1.3459502e-12
6.4686346e-14
-2.6055291e-14
-5.97331e-13
5.8151101e-13
-1.7746392e-15
1.3095636e-15
-3.0128814e-14
0
-6.8662985e-13
1.9042565e-13
-1.8871159e-14
-3.3661275e-12
1.408623e-12
4.6718696e-12
1.2852049e-11
3.62371e-12
2.1844365e-11
1.0888922e-13
1.4051936e-13
-1.5950489e-13
0
-1.1022502e-14
1.0780545e-14
1.5551603e-13
-5.9664822e-13
5.1609871e-14
0
-3.3518055e-13
2.6129481e-13
-1.5562792e-14
1.1175396e-13
0
0
3.3269614e-13
-2.1925156e-14
-1.1328965e-12
-4.3295413e-13
3.6623209e-12
6.4893688e-13
1.2181844e-11
1.1985574e-11
0
0
-5.5582065e-13
4.3127985e-12
0
-2.9165173e-14
1.7105361e-14
7.7648035e-14
1.4677662e-14
-1.3496725e-13
9.8693084e-15
2.302377e-13
-2.5516415e-13
1.7044505e-13
-1.4091461e-17
-3.6643684e-14
5.5532385e-14
-2.8357732e-13
2.6286697e-14
-3.9616371e-14
-3.6362589e-13
-1.2412423e-14
5.1718799e-14
2.9126684e-12
-6.2739185e-12
1.6170681e-12
1.5975457e-13
-2.9661657e-12
3.4300919e-11
0
2.683979e-13
-1.4597063e-13
8.9201358e-16
-2.0750738e-16
1.4434954e-14
5.1530492e-14
-6.7895315e-15
1.9672247e-14
1.2480799e-14
1.1870886e-12
-1.9652242e-13
5.2199323e-13
-2.6981671e-12
7.8073731e-13
-1.1160136e-13
6.7492192e-13
-1.5058663e-12
2.5113652e-13
2.6087784e-12
-8.7275601e-12
6.4571553e-12
-3.5230237e-13
0
4.793134e-11
-6.3742206e-15
3.8068863e-14
2.4622138e-13
-4.4696374e-17
-1.3485724e-14
6.2047974e-14
2.5859602e-14
-4.6693718e-14
1.4263789e-13
0
2.4193741e-12
-2.308049e-15
3.0529039e-12
-1.0280373e-13
9.5606605e-13
-3.6044555e-13
3.9595282e-12
-3.9192014e-12
3.2240482e-12
3.1368111e-12
-3.2709682e-11
6.6056174e-12
-2.9927844e-13
1.1284677e-11
-1.6816236e-11
-1.0119342e-14
1.4029264e-13
3.1338906e-12
-1.7538038e-15
-1.645205e-14
8.9097104e-14
0
-8.1952177e-15
1.3937263e-13
-1.1933362e-12
2.8062611e-12
1.0300432e-14
5.2981886e-14
-5.7202097e-14
1.8635325e-14
-1.5088128e-14
2.66191e-12
-1.2231426e-12
1.852168e-12
1.0408441e-12
-8.013058e-12
1.440386e-11
-9.924768e-13
1.9081323e-11
-5.8659242e-12
-1.2509743e-14
5.2667571e-15
1.5790201e-13
-9.1290514e-16
-4.4951036e-14
6.5472368e-14
-1.0326342e-13
-1.1450903e-13
1.8755633e-13
-9.1439093e-13
1.365161e-12
-7.959205e-14
0
-4.5388759e-14
2.7782939e-14
-1.8816833e-14
4.4471324e-13
-2.128157e-12
1.6659414e-12
4.6668597e-12
0
8.183038e-12
1.1357234e-12
7.8532556e-12
7.6018666e-11
-9.0496179e-16
5.9569807e-15
1.2854265e-12
-6.1498092e-15
-4.4719061e-14
6.3577469e-14
-5.9838257e-14
-1.6375189e-13
1.6929616e-12
-1.6284868e-12
2.4112436e-13
-2.4754044e-15
1.6000623e-13
-1.083266e-13
2.4118076e-14
-8.3795586e-15
4.0176187e-12
-3.4372844e-12
4.0960312e-12
3.954478e-11
-2.7610429e-11
-4.5715521e-13
6.8797486e-13
6.3557849e-13
5.8294218e-11
9.9319292e-15
4.7840273e-14
7.2975073e-13
2.0454114e-15
-1.8242992e-14
4.079114e-14
-3.9247367e-16
-9.469727e-14
2.0693455e-13
-1.3173902e-12
5.5017247e-13
0
4.9640855e-13
-4.9069874e-13
3.6232406e-14
-6.6442244e-15
7.4578789e-12
-6.875809e-12
-1.3566246e-12
6.4304367e-11
-1.4221759e-11
-2.7180118e-13
6.5439952e-14
1.1434066e-11
0
1.5979889e-14
3.5645547e-13
2.72599e-12
4.5393709e-15
-4.7506028e-15
3.7155535e-14
0
-9.9034209e-15
1.5325666e-14
-6.0632911e-13
5.5231698e-13
-9.8692844e-15
0
3.4075195e-13
-4.7580018e-15
-8.1518295e-13
-2.1537966e-11
-1.5943386e-11
5.6196628e-12
-4.4285542e-12
4.5829493e-11
-9.9564838e-11
-3.5341044e-14
0
6.0783787e-12
4.7433632e-15
2.301375e-13
2.276746e-14
4.8123607e-16
1.4169209e-14
-1.1105642e-15
0
1.8106453e-13
-1.4136588e-14
3.3611708e-13
1.2744415e-15
-3.8831e-14
8.7391756e-15
-1.836072e-13
1.2128238e-13
-6.4186457e-15
0
-1.3159109e-14
1.2590332e-13
-1.4332818e-11
-9.7924957e-13
4.1375396e-12
-1.3088857e-11
-2.2567942e-11
3.0607607e-10
-7.6086257e-14
1.2344981e-12
-1.4141141e-12
-1.3618112e-14
-3.6870041e-14
3.9725927e-14
9.6170739e-15
7.4785676e-15
0
-6.1866666e-13
1.9503161e-12
-3.298938e-14
2.3389875e-13
-1.7721782e-12
1.9967478e-12
-2.5292511e-13
-1.6663467e-12
-1.8290288e-12
1.3531866e-12
-1.4645563e-11
-8.437798e-14
2.0281725e-11
-4.5876867e-12
-2.1659275e-11
1.330931e-10
-2.4900494e-14
8.3455011e-13
1.2969178e-11
-8.4969301e-14
-9.934209e-14
2.4515417e-13
8.4749653e-14
2.5598237e-13
0
2.3532261e-12
-2.589269e-11
-1.3243932e-13
9.5673125e-13
-5.2435514e-14
9.4927875e-13
-3.1094399e-13
-1.796346e-15
-3.4966591e-12
5.4888951e-12
-1.3160689e-11
6.4402791e-12
1.1829232e-11
1.8612726e-11
0
-1.0617544e-11
2.5680996e-12
1.6800608e-11
1.1375495e-11
-1.1856544e-14
-2.5915291e-14
2.6351976e-12
6.1046715e-15
1.6006368e-13
3.217904e-13
1.5846852e-13
5.1616875e-12
-2.1641256e-14
2.1797332e-14
-3.6654342e-14
3.4485195e-14
-4.3154616e-14
1.0123944e-12
-1.0825961e-12
2.9708364e-12
-1.7669328e-11
2.147141e-11
1.1955168e-11
-1.9631452e-12
-2.248143e-10
6.6996124e-12
-2.5366351e-14
3.5356162e-12
2.8229134e-11