/*--------------------------------*- C++ -*----------------------------------*\
  =========                 |
  \\      /  F ield         | OpenFOAM: The Open Source CFD Toolbox
   \\    /   O peration     | Website:  https://openfoam.org
    \\  /    A nd           | Version:  13
     \\/     M anipulation  |
\*---------------------------------------------------------------------------*/
FoamFile
{
    format      ascii;
    class       volScalarField;
    location    "0.01";
    object      p_rgh;
}
// * * * * * * * * * * * * * * * * * * * * * * * * * * * * * * * * * * * * * //

dimensions      [1 -1 -2 0 0 0 0];

internalField   nonuniform List<scalar> 
51200
(
1.8662596
1.852459
1.8444478
1.8413832
1.8414453
1.8446302
1.8527291
1.8665854
1.8559978
1.8428196
1.8355015
1.8327794
1.8328402
1.8356812
1.8430872
1.8563241
1.8466542
1.834317
1.8276562
1.8252204
1.8252798
1.8278322
1.8345802
1.8469799
1.8390427
1.8275985
1.821579
1.8193874
1.8194452
1.8217509
1.8278562
1.839366
1.8326042
1.8220369
1.8166447
1.8146683
1.8147244
1.8168118
1.8222883
1.8329233
1.8269884
1.8172665
1.8124774
1.8106936
1.8107478
1.8126394
1.8175109
1.8273023
1.822079
1.8131334
1.8089197
1.8073123
1.8073648
1.8090764
1.8133703
1.8223866
1.8178427
1.8094586
1.8058244
1.8043845
1.804435
1.8059754
1.8096875
1.8181427
1.7782658
1.7776533
1.7773193
1.7769119
1.776977
1.777513
1.7779405
1.7786158
1.7793021
1.7788089
1.7784562
1.7780463
1.7781099
1.7786463
1.7790917
1.7796522
1.7804657
1.7801448
1.7797755
1.7793585
1.7794203
1.7799613
1.780422
1.7808143
1.7816536
1.7814803
1.7810899
1.7806659
1.780726
1.7812706
1.7817507
1.7819988
1.7828547
1.7827647
1.78235
1.7819233
1.7819816
1.7825251
1.7830277
1.7831947
1.784018
1.7839427
1.7835053
1.7830825
1.7831391
1.7836746
1.7841978
1.7843517
1.7850886
1.784972
1.7845176
1.7841052
1.7841603
1.7846807
1.7852189
1.785415
1.7859577
1.7857838
1.7853192
1.7849198
1.7849734
1.7854758
1.7860223
1.7862752
1.7807544
1.7794779
1.7787677
1.7784828
1.7785598
1.7790086
1.7798312
1.7811833
1.7810479
1.7797879
1.7791368
1.7788633
1.7789385
1.7793735
1.7801364
1.781478
1.7813272
1.7801015
1.7795134
1.7792491
1.7793223
1.7797455
1.7804443
1.7817571
1.7814446
1.7802689
1.7797496
1.7794994
1.7795704
1.7799764
1.780605
1.7818727
1.7814399
1.7803358
1.7798865
1.7796543
1.7797233
1.7801073
1.7806641
1.7818643
1.7813752
1.7803551
1.7799733
1.7797628
1.7798297
1.7801876
1.7806748
1.7817941
1.781253
1.7803266
1.7800155
1.7798325
1.7798973
1.7802226
1.780637
1.7816647
1.7809159
1.7801743
1.7799558
1.7798103
1.7798732
1.780155
1.7804747
1.7813176
1.7703631
1.7701968
1.7703642
1.7705968
1.7706911
1.7706749
1.7706471
1.7709096
1.7705557
1.7704423
1.7706171
1.7708255
1.7709173
1.7709224
1.7708867
1.7711042
1.7707502
1.7706851
1.7708716
1.7710585
1.7711476
1.7711712
1.7711228
1.7712995
1.7709276
1.7709023
1.7711033
1.7712737
1.7713603
1.7713967
1.7713323
1.7714757
1.7710941
1.7711062
1.7713233
1.7714813
1.7715654
1.7716097
1.7715277
1.7716392
1.7712615
1.7713081
1.7715408
1.7716893
1.7717711
1.7718195
1.7717202
1.7718015
1.7714279
1.7715135
1.7717607
1.7719034
1.7719831
1.772031
1.7719154
1.7719605
1.7715301
1.7717354
1.7719949
1.7721378
1.772216
1.7722557
1.7721265
1.7720518
1.7649961
1.7649079
1.7652039
1.7656111
1.7657327
1.7656292
1.7655179
1.7657414
1.7650916
1.7650473
1.7653531
1.7657327
1.7658507
1.7657713
1.7656496
1.7658403
1.7651921
1.7651886
1.7655056
1.76586
1.7659743
1.7659166
1.7657822
1.7659428
1.7652741
1.7653051
1.7656359
1.7659707
1.7660814
1.766039
1.7658889
1.7660238
1.7653405
1.7654035
1.7657507
1.7660702
1.7661777
1.7661449
1.7659765
1.7660864
1.7653984
1.765491
1.7658565
1.7661642
1.7662687
1.7662408
1.7660522
1.766138
1.7654445
1.7655742
1.7659599
1.7662594
1.7663614
1.7663332
1.7661227
1.7661748
1.76545
1.7656883
1.766094
1.7663895
1.7664902
1.7664539
1.7662232
1.7661655
1.7599039
1.7599667
1.7604364
1.7609958
1.7611436
1.7609959
1.7607893
1.7609316
1.7599582
1.7600667
1.7605405
1.7610684
1.7612113
1.7610905
1.7608773
1.7609909
1.7600138
1.7601646
1.7606425
1.7611407
1.7612787
1.7611828
1.7609619
1.7610492
1.7600614
1.7602471
1.7607292
1.7612023
1.7613358
1.7612597
1.7610302
1.761096
1.7601038
1.7603183
1.760805
1.7612569
1.7613866
1.7613258
1.7610867
1.761133
1.760144
1.7603823
1.7608742
1.7613077
1.7614341
1.7613847
1.7611356
1.7611643
1.7601808
1.760444
1.7609417
1.7613594
1.7614836
1.761441
1.761182
1.7611884
1.7601991
1.7605291
1.7610321
1.7614367
1.7615612
1.7615175
1.761252
1.7611874
1.7555073
1.7556868
1.7563683
1.757088
1.7572821
1.757149
1.7568621
1.7570047
1.7555307
1.7557593
1.7564405
1.7571253
1.7573114
1.7572073
1.756915
1.757036
1.7555526
1.7558267
1.756505
1.7571568
1.7573349
1.7572599
1.7569617
1.7570627
1.7555686
1.7558816
1.7565546
1.7571764
1.7573472
1.7572971
1.7569944
1.7570775
1.7555798
1.7559274
1.7565932
1.7571875
1.7573521
1.7573226
1.7570167
1.7570816
1.7555886
1.7559683
1.7566245
1.7571936
1.757353
1.7573403
1.7570328
1.757079
1.7556018
1.7560088
1.7566522
1.7571989
1.7573546
1.7573536
1.7570471
1.7570704
1.7556108
1.7560643
1.7566943
1.7572184
1.7573744
1.7573754
1.7570756
1.7570448
1.751464
1.7518835
1.7529465
1.753902
1.7540901
1.753694
1.7534349
1.7535575
1.7514669
1.7519478
1.7529975
1.7539079
1.7540841
1.7537228
1.7534503
1.7535644
1.7514684
1.7520041
1.7530328
1.7539003
1.7540642
1.753738
1.7534556
1.7535591
1.7514683
1.7520495
1.753051
1.7538784
1.7540338
1.7537468
1.7534517
1.7535425
1.7514606
1.7520865
1.7530563
1.7538462
1.7539972
1.7537544
1.7534431
1.7535165
1.7514604
1.7521179
1.7530527
1.7538072
1.7539573
1.753762
1.7534339
1.753485
1.7514657
1.7521469
1.7530446
1.7537656
1.7539178
1.7537708
1.7534289
1.7534527
1.7514791
1.7521831
1.7530443
1.7537322
1.7538923
1.7537907
1.7534405
1.7534195
1.7475623
1.7482204
1.7504757
1.7518781
1.7521486
1.7516908
1.75083
1.7510457
1.7475397
1.7483072
1.7505293
1.7518514
1.7520929
1.7517033
1.7508288
1.751021
1.7475184
1.7483841
1.7505562
1.7518019
1.7520148
1.7516987
1.7508107
1.7509833
1.7475057
1.7484642
1.7505578
1.7517327
1.7519228
1.7516775
1.7508001
1.7509323
1.7475031
1.7485469
1.7505381
1.7516473
1.7518211
1.7516459
1.750786
1.7508685
1.7475118
1.7486301
1.7505013
1.7515504
1.7517125
1.7516156
1.7507687
1.750796
1.7475389
1.7487148
1.7504528
1.7514456
1.7516089
1.7515778
1.7507526
1.7507218
1.7476012
1.7488067
1.750402
1.7513394
1.7515178
1.7515312
1.7507415
1.7506494
1.7436158
1.7452259
1.749334
1.7511928
1.7508927
1.7469445
1.748306
1.7481918
1.743594
1.7453809
1.7493695
1.751094
1.7508267
1.7475666
1.7479704
1.7480917
1.7435827
1.7455403
1.7493544
1.7509542
1.7506877
1.747701
1.7479306
1.7479564
1.7435986
1.7457038
1.7493097
1.7507966
1.7505662
1.7477471
1.7478868
1.7478283
1.7436412
1.7458653
1.7492416
1.7506344
1.7504701
1.7478502
1.7478306
1.7477149
1.7437085
1.7460217
1.7491531
1.750464
1.7503761
1.7482342
1.7478175
1.747619
1.7438099
1.7461733
1.7490537
1.7502961
1.7502788
1.7487323
1.7478683
1.747556
1.7439794
1.746325
1.7489679
1.7501525
1.7502132
1.7491792
1.7479965
1.7475738
1.7380617
1.7380037
1.7518527
1.7533769
1.7524648
1.7478041
1.7474105
1.7483027
1.7379824
1.738431
1.7520052
1.7532308
1.7533679
1.7508343
1.7505249
1.7480775
1.7378186
1.7389752
1.7520539
1.7530002
1.7537103
1.7532271
1.74856
1.7478695
1.7377837
1.739785
1.7522013
1.753337
1.7536455
1.7505714
1.7478704
1.7475688
1.7379229
1.7407633
1.7519492
1.7529284
1.753304
1.7508972
1.7481004
1.7473558
1.7382076
1.7417842
1.7517192
1.7525085
1.752843
1.7522952
1.7482488
1.7472013
1.7386227
1.7427877
1.7514493
1.752178
1.7523562
1.7535436
1.7483376
1.7470995
1.7392287
1.7437687
1.7511149
1.7518683
1.7520201
1.7541604
1.7485231
1.7470779
1.7314749
1.7390236
1.7527641
1.7565539
1.8359501
1.9609199
1.7307887
1.7417853
1.7313713
1.7396853
1.7534205
1.7589661
1.7470757
1.938057
1.7269468
1.7418044
1.731545
1.7403206
1.754036
1.7594553
1.7488402
1.901577
1.7338689
1.7410766
1.7318276
1.7409241
1.7546821
1.7583659
1.7581463
1.9242352
1.7395011
1.7399075
1.7322704
1.7418406
1.7550052
1.7573454
1.7562503
1.8775138
1.7492701
1.7394753
1.7329344
1.743023
1.7550764
1.7566578
1.755582
1.8026605
1.7535165
1.740448
1.7338406
1.744248
1.7550144
1.7562419
1.7578047
1.7818694
1.7504337
1.7410892
1.7350502
1.7453946
1.7549779
1.755984
1.7578255
1.7828809
1.7501001
1.7422324
1.707733
1.6452774
1.8046975
1.7600027
1.9918066
2.0142913
1.7050062
1.7501354
1.6988665
1.6496852
1.8199034
1.7668419
1.9682941
2.0204789
1.7074487
1.7472568
1.6951678
1.6627416
1.8160086
1.7687951
1.9354769
2.0122882
1.7201298
1.7444518
1.6967391
1.6848747
1.808939
1.7699023
1.8782747
2.0037404
1.7319432
1.7421572
1.6998422
1.7067319
1.8012045
1.7682425
1.829623
1.9895565
1.7419049
1.740868
1.7046338
1.7249812
1.7935771
1.7668953
1.8043323
1.9674623
1.753329
1.7406991
1.710445
1.7387563
1.7887718
1.7660957
1.7908242
1.9017336
1.7593298
1.74199
1.7167808
1.7480795
1.7854349
1.7653725
1.771645
1.8571818
1.761196
1.7443112
1.6871062
1.7153676
1.7527037
1.8311728
1.9729429
2.0341586
1.6975406
1.7814744
1.6929007
1.7070473
1.6574367
1.7673709
1.9804562
2.0573283
1.697835
1.7711045
1.6920366
1.7073515
1.6043897
1.7841892
1.9864598
2.0513664
1.7119848
1.7650006
1.6912788
1.7143223
1.7481349
1.7940374
1.9942961
2.0437894
1.7242945
1.7605191
1.6914752
1.7244965
1.7998611
1.7941382
1.9981284
2.0443006
1.7354428
1.7541829
1.6938941
1.7338543
1.7870678
1.821685
1.9324029
2.0372756
1.7455558
1.7494522
1.698801
1.7435946
1.7898612
1.7418576
1.8386325
2.0113559
1.7550746
1.7458416
1.7056371
1.7524697
1.7888611
1.7567689
1.8197447
1.9962107
1.7676228
1.7458483
1.6633582
-1.6325583
3.7849167
2.4028414
1.8287418
2.062519
1.7296321
1.7782393
1.3091752
-0.56665274
3.6912667
2.3733419
1.8476001
1.9041941
1.7153879
1.7763198
1.0700336
7.0379314
3.7939923
2.6431647
1.8689262
1.9394599
1.7167102
1.7700844
1.3040348
2.5609591
3.9915457
2.3829001
1.9346316
2.0493071
1.7260199
1.7632445
1.3884981
1.9454135
4.0408286
2.3081
1.7900038
1.9701573
1.7394159
1.7566316
1.4652325
2.2654269
4.0370479
2.0381564
1.7758765
2.0040325
1.7499497
1.7542935
1.5596817
2.3956653
3.6870459
2.0036502
1.8010276
1.9532724
1.7674082
1.7498448
1.6520777
2.3593779
2.7936627
1.8867226
1.80688
1.8861386
1.7728
1.750468
1.6391895
1.0335368
3.9752896
2.8476773
1.8768677
1.8557344
1.7701278
1.903709
1.5613441
1.0995087
3.9158765
3.8701648
1.8689039
1.8271567
1.7576412
1.8352975
1.5108965
1.1541903
3.8634431
3.0010096
1.8171076
1.8176084
1.7443127
1.8109624
1.4132068
1.2450508
4.2482488
1.9641627
1.7378633
1.8306157
1.7755256
1.7957355
1.3954252
1.4759051
4.1592607
1.4503283
1.7920218
1.8175785
1.7567185
1.7860468
1.3990845
1.7229318
3.8017403
1.5995634
1.8283948
1.8176445
1.8732694
1.786193
1.4268977
1.8632876
3.0959461
1.6086002
1.8329603
1.8065942
1.7512819
1.7908556
1.4729975
1.8365025
2.5025332
1.6660041
1.8390109
1.7948299
1.7599985
1.7599485
1.7653234
1.2230217
4.5587775
3.9892778
2.1236846
1.8291723
1.8084372
1.7606508
1.7532099
1.3445549
4.5972656
2.3637518
2.0840921
1.8235197
1.8072608
1.725239
1.6432808
1.6634806
4.6972045
1.9677637
2.0767153
1.8257384
1.8035899
1.6958814
1.6266091
1.7390488
5.4703359
3.908539
2.0548006
1.8302096
1.8068486
1.7050555
1.5678439
2.0011372
7.7610604
2.6478466
2.0610912
1.8356518
1.8156761
1.8028984
1.514859
2.3006479
6.5426486
2.94595
2.0862499
1.8427351
1.8251372
1.7906227
1.472893
2.3412916
8.9470301
2.3671944
2.0294053
1.8458493
1.8469664
1.7613114
1.516281
3.0485519
16.445016
2.0498774
1.9482999
1.8380913
1.8306905
1.7463235
1.5627639
1.9815336
3.2966684
1.5786144
1.3351722
1.7110905
1.7380977
1.6944946
1.5685333
2.0451798
2.394861
1.3406279
1.302917
1.7167599
1.7300677
1.7780315
1.4866885
2.1940348
2.3701865
2.8116962
1.4912645
1.7154016
1.7195845
1.6363525
1.5109605
2.2209439
4.1300444
-0.21670392
1.2662576
1.6773177
1.7291154
1.5441525
1.5082187
2.7952668
2.4899599
3.5328619
2.4719435
1.6213672
2.2071877
1.5033154
1.4541644
2.9841854
5.0710885
3.6600732
1.8196193
1.5787851
1.6612118
1.5952214
1.3582145
3.6104898
3.8435447
7.9897653
1.6990469
1.6048546
1.7223702
1.6073397
1.3843996
5.6241488
4.9037843
4.0574859
1.9205438
1.6284827
1.676925
1.6734196
1.2085741
1.5489259
3.3246
0.56383866
9.6221181
2.4572138
1.2340339
1.971832
1.1977195
1.7500042
3.4128587
-4.7900588
2.3962298
1.6070862
1.3919991
4.6330225
1.1780433
1.8638637
2.954831
8.7065892
2.6304395
2.2260687
1.5941634
0.63174167
1.1974925
1.8629801
3.3128671
11.36326
1.3714439
1.6709397
1.798348
0.63910668
1.0722317
1.9477445
3.8449675
15.543024
13.769961
1.78808
2.9446302
2.8073945
1.2846365
2.2954873
9.9020449
15.114019
13.132546
2.1882459
2.0276949
2.8346151
1.062314
3.2286432
10.686195
18.636427
9.833909
3.775467
4.0254018
4.0505244
1.1574697
5.4036462
15.365058
39.64112
45.170279
6.5538987
3.6502823
3.7972732
-0.60421131
0.83229242
2.6468114
-0.96299293
3.0328184
-1.1028676
45.160234
42.431798
-0.58548313
2.2325038
3.6857427
4.728576
8.9986661
4.35371
3.5485002
85.394573
3.8265818
0.22965396
2.3103689
7.433847
7.9297678
8.9948608
-8.3286559
-11.118928
-0.050548589
15.660624
23.296332
21.453078
11.349993
9.7126478
-0.085688146
-1.1409073
2.7250227
4.1498552
3.4491317
63.007845
64.418206
25.380421
5.6197242
2.4151904
2.0735739
8.8694179
5.0716184
89.169417
117.17021
42.845465
-1.7456
-7.9633259
-1.8320132
27.403925
34.959667
127.51006
116.19212
73.876519
5.6920631
28.498192
2.8882264
16.237347
83.144221
137.61319
125.03376
76.344017
41.480528
45.041777
-2.9361491
-6.3536416
7.4877619
1.8609874
9.1234254
4.9989285
25.773714
-2.4177843
-4.3343497
-4.9312767
5.6035592
3.1036264
13.659652
5.0291698
1.6893462
1.1020025
-0.83068392
-3.3362856
28.642675
4.1612302
16.041036
5.5375101
4.8021095
-1.3885767
0.27225804
35.135141
18.904536
43.081967
28.93471
8.7656797
3.9006891
0.30842837
14.054561
16.489684
12.727564
87.934769
97.494974
11.488477
-5.3900698
23.584786
27.138381
35.488419
-3.3905614
133.93461
159.24754
33.4264
15.143754
-10.604403
29.837936
54.110803
37.296172
142.43289
148.96553
57.966565
29.946781
8.616272
31.263012
24.400297
74.960797
138.04242
141.42634
74.171808
20.914899
21.481771
0.94276218
-0.62683161
0.26671959
2.5062626
6.9541809
-3.1687811
3.4206598
-1.290873
0.77267689
-0.59565479
0.26201315
-0.94020497
-0.57106967
-1.487703
-0.46205083
0.074783138
0.62385331
0.48125221
4.5154117
-1.005611
0.09438078
0.61810096
-0.89549673
-2.5092536
0.20251967
0.52175993
6.3665731
5.5533121
2.6995366
1.7177002
1.599964
-2.1409398
0.0070942876
1.0704462
7.4957524
31.745887
23.38276
7.5517497
2.0278278
-1.7266594
15.373865
2.2463271
14.906732
47.324234
51.313491
16.695673
6.2045559
-1.4535135
14.069356
1.4675815
27.54087
70.81039
64.616689
34.624291
10.556256
-0.37156877
11.966094
6.5275791
59.401835
102.06743
74.95698
47.276453
19.89484
3.2956534
0.028000809
0.10417503
0.60635143
1.0386363
1.4411307
0.43165494
0.83889446
-0.93860155
0.055634638
0.12893044
0.54876441
0.94057715
1.3113865
0.34017759
0.74058985
-0.88587428
0.076783752
0.20015215
0.85633759
1.0215196
1.659235
0.3834721
0.95741501
-0.90055518
0.17167568
0.17947439
0.84975204
1.1475959
1.6690631
0.39395837
1.015606
-0.95385661
0.14402385
0.069129377
0.47963233
0.22914309
1.3669404
1.6825697
0.35901273
-1.4494613
0.18747846
1.5359365
1.2527281
-2.013625
-0.35056867
1.7869395
9.8383554
-1.3269
0.45456817
3.6147035
1.8858768
0.39021132
-0.83863724
3.1049936
9.0257271
-0.6992515
0.072488287
1.8626515
4.0854551
16.078383
8.9915725
2.7697823
15.965132
0.57306421
0.43800516
0.45370538
0.55998779
0.72484456
0.70153629
0.24148347
0.50102601
-0.076714133
0.44402945
0.39051991
0.52327887
0.70531984
0.68038995
0.25472459
0.51212759
-0.046748009
0.41721719
0.39688369
0.52866104
0.68062769
0.67751356
0.28699251
0.52882296
-0.025314519
0.40227511
0.39301063
0.53168627
0.780926
0.69234715
0.25569928
0.51899976
-0.014263508
0.38365759
0.42609469
0.54102371
0.7244216
0.68748336
0.25010147
0.51071294
-0.012055015
0.37642417
0.37281006
0.56624227
0.73450191
0.6995598
0.34677652
0.51736491
-8.3375645e-07
0.39204574
0.30271502
0.57192285
0.77125463
0.68841105
0.31578313
0.59666149
0.067984124
0.33551147
0.21718311
0.57337105
0.83078359
0.624518
0.30083738
0.42166789
0.10931858
0.40128516
0.3217322
1.2945846
0.55089601
0.57302682
0.49652655
0.53054253
0.2390025
0.40855621
0.37826481
0.88773741
0.49898834
0.5699316
0.49830014
0.5424114
0.25288444
0.39428413
0.31451484
1.0856781
0.50211863
0.56498882
0.49911935
0.55443001
0.26779506
0.39052276
0.29958446
1.1236319
0.65439732
0.55691129
0.49690358
0.56680948
0.28325634
0.38849595
0.32792819
1.0246145
0.54612353
0.54781103
0.49598146
0.60399235
0.30441693
0.38663678
0.36473494
1.5806652
0.62273557
0.53796293
0.49677798
0.62400626
0.34463766
0.38062209
0.38571132
1.1719444
0.52449194
0.52135478
0.5023928
0.67978552
0.34616781
0.37073944
0.42600839
1.7389251
0.4773463
0.48874412
0.49510263
0.71734511
0.39086815
0.42100389
0.34057951
0.79679047
0.44896549
0.47561098
0.47378083
0.50135708
0.40793152
0.41709341
0.35235255
0.69177409
0.43655444
0.47574116
0.47311977
0.50346176
0.4119133
0.43228814
0.38317685
0.76293212
0.46121114
0.47404014
0.47299046
0.50665574
0.41684295
0.39983168
0.42761084
0.83893849
0.47394903
0.47051697
0.47449997
0.51135855
0.42216721
0.39834236
0.43995411
0.8109402
0.47164876
0.46759945
0.47563464
0.51875887
0.4305671
0.39865487
0.48039237
0.78006393
0.46854462
0.4632402
0.47236438
0.58028721
0.43371026
0.40116584
0.46878782
0.80324066
0.46032385
0.45650182
0.46715333
0.55278898
0.44240994
0.40292207
0.43247952
0.79156812
0.47223647
0.44640538
0.46011675
0.5591905
0.44803678
0.45528155
0.40459896
0.64229874
0.45566069
0.47411546
0.48649684
0.50449374
0.48080594
0.4525441
0.41215146
0.63409059
0.45251481
0.47420274
0.48487459
0.50391148
0.48168891
0.44988808
0.44287401
0.63833798
0.45864602
0.47340092
0.48295213
0.50337413
0.48313775
0.44408901
0.47614507
0.72489393
0.46129108
0.47128004
0.48072638
0.50280817
0.48530006
0.44470375
0.52675067
1.1412367
0.45488406
0.46663935
0.47856678
0.50221493
0.48735792
0.44614474
0.58201918
0.39485698
0.45099866
0.46243875
0.48276485
0.51778727
0.48935378
0.45023473
0.6495031
0.37900217
0.47749138
0.4583288
0.49391677
0.52308776
0.49257754
0.46356171
0.45307754
0.40445601
0.427662
0.45579395
0.46486367
0.49613747
0.49453465
0.46642096
0.4320046
0.54100828
0.47067554
0.48125017
0.49543075
0.4887317
0.49253236
0.4647867
0.43548961
0.53980144
0.46967477
0.48065679
0.49412859
0.48874444
0.49220686
0.46220975
0.4405869
0.53875359
0.46953451
0.4797325
0.49264832
0.48863999
0.49208512
0.45889751
0.48235582
0.54233956
0.47106335
0.47856774
0.4911693
0.48841835
0.49218982
0.45775474
0.46931744
0.56820041
0.47067213
0.47644021
0.49172044
0.48959699
0.49221107
0.45614646
0.4836406
0.62453608
0.46567059
0.47407348
0.53561236
0.49725285
0.49295643
0.45975117
0.53884178
0.48674145
0.46468616
0.475027
0.53203565
0.49572879
0.4943615
0.46844583
0.4692828
0.48509562
0.46352168
0.47665559
0.4968243
0.49189063
0.49528318
0.47472001
0.45094941
0.54995878
0.48686092
0.4976364
0.49946626
0.4851253
0.49375485
0.47348672
0.45473647
0.55015752
0.48577183
0.49699278
0.49948289
0.48548081
0.49331434
0.47171286
0.45904378
0.55147112
0.48529357
0.49622111
0.49972989
0.48568072
0.49294897
0.4693636
0.47243718
0.55797149
0.48661242
0.49560872
0.50024062
0.48567644
0.4926392
0.46780466
0.49730881
0.57716204
0.48612278
0.49429134
0.50209477
0.48662129
0.49221784
0.46850676
0.49315615
0.58796191
0.48193349
0.49146936
0.51361343
0.48970212
0.49177837
0.46974932
0.50187899
0.58651812
0.47852752
0.49022179
0.52146612
0.4860079
0.49153083
0.47315878
0.51662402
0.58596701
0.47584582
0.50031682
0.51510012
0.48824368
0.49158697
0.47888345
0.47554306
0.52284054
0.4951619
0.49966384
0.48522634
0.48630308
0.4890124
0.47848791
0.47766284
0.52293184
0.49447129
0.49937683
0.485817
0.48623884
0.48884524
0.47787363
0.48017568
0.5235536
0.49409137
0.49917393
0.48620709
0.48621653
0.48870071
0.47699746
0.48609075
0.52909418
0.49520413
0.49915134
0.48631651
0.48618146
0.48859822
0.47672723
0.50520201
0.54425675
0.49580965
0.49890636
0.4861595
0.48615808
0.48851226
0.47812395
0.50980037
0.57686456
0.49528946
0.49752449
0.48705507
0.4869872
0.48840481
0.4796519
0.52104519
0.58013054
0.49091078
0.4939315
0.4931474
0.48553165
0.48825789
0.48112519
0.52733606
0.58036217
0.48668811
0.49710096
0.49983381
0.48530312
0.48814379
0.4814209
0.47711387
0.50458108
0.4915943
0.49458822
0.48094647
0.48386207
0.48433551
0.48116298
0.47832882
0.50496024
0.49140521
0.49472233
0.48153073
0.4838148
0.48427997
0.48097973
0.47953246
0.50557663
0.49134169
0.49499692
0.48203201
0.483826
0.4842219
0.48081712
0.48098307
0.50867942
0.49166353
0.49538909
0.48236613
0.48385912
0.48417385
0.4806797
0.48286328
0.51170904
0.4919682
0.4958352
0.48253959
0.48389163
0.48413484
0.48065098
0.4865249
0.51531272
0.49239895
0.49619123
0.4825617
0.48390372
0.48410901
0.48073216
0.48812642
0.52315983
0.49224469
0.49528794
0.48264394
0.48386575
0.48411266
0.48104286
0.49603986
0.54244568
0.49075433
0.49505158
0.4825175
0.48426331
0.48413774
0.4790068
0.47790886
0.48653963
0.48091484
0.48243467
0.47699844
0.47957136
0.47995357
0.47895023
0.47835362
0.48681943
0.48110783
0.48276218
0.47730192
0.47950813
0.47989656
0.47892503
0.47885134
0.48699444
0.4812905
0.48306425
0.47759475
0.47946634
0.47983425
0.47891974
0.47939091
0.48699897
0.48143251
0.48326544
0.47783022
0.47943492
0.47976918
0.47893191
0.47996609
0.48682212
0.48148376
0.48333959
0.47800783
0.47940404
0.47969801
0.47895821
0.48048705
0.48621749
0.48158241
0.48326783
0.47813441
0.47936677
0.47962198
0.47899937
0.48088498
0.48497616
0.48150279
0.48303952
0.4782266
0.47932976
0.47956173
0.47906596
0.48127405
0.48525815
0.48127168
0.48254568
0.47826938
0.47928325
0.47956538
0.47564984
0.47461214
0.47725062
0.47430907
0.47500686
0.47350576
0.47547152
0.47597513
0.47560942
0.47474013
0.47745008
0.47452304
0.47526148
0.47361933
0.47537565
0.47592226
0.47558439
0.47488969
0.47762297
0.47471901
0.4754928
0.4737347
0.47528871
0.47585597
0.47554936
0.47506808
0.47770917
0.47484823
0.47563945
0.47382666
0.47520626
0.47578253
0.47551808
0.47525447
0.47769329
0.47491362
0.47570256
0.47389611
0.47512338
0.47570043
0.47549175
0.47542845
0.47757348
0.47494887
0.47568686
0.47394616
0.47503786
0.47560684
0.47547966
0.47558351
0.47737822
0.47495933
0.47559491
0.47399116
0.47496529
0.47550335
0.47551799
0.47574968
0.4771492
0.47487917
0.47543523
0.4740702
0.47494088
0.47548631
0.47200256
0.47118006
0.47140178
0.46976383
0.47018496
0.47034276
0.47178543
0.47228651
0.47197609
0.4711665
0.47146545
0.46987059
0.47029603
0.47033812
0.47168444
0.47224318
0.47195031
0.47115505
0.47151115
0.4699541
0.47038507
0.47033091
0.47158464
0.47218875
0.47192374
0.47114312
0.47151213
0.46999186
0.47042418
0.47031423
0.47148588
0.47212848
0.47189215
0.47112611
0.47147176
0.46999413
0.47042074
0.47028975
0.47138567
0.4720602
0.47185228
0.47110131
0.47139605
0.46997029
0.47038337
0.47025826
0.47128595
0.47198175
0.47180996
0.47107934
0.47129458
0.46992808
0.47031948
0.47023122
0.47119737
0.47189978
0.47179802
0.47108864
0.47118119
0.46989426
0.47025394
0.47024276
0.47114837
0.47184688
0.46839346
0.46785014
0.46760144
0.46674921
0.46702652
0.46750764
0.46840736
0.46877735
0.46838216
0.46780806
0.46759578
0.46677186
0.46704358
0.46746387
0.46832606
0.46874734
0.46836961
0.46776432
0.46758077
0.46678176
0.46704942
0.46741857
0.46824389
0.46871122
0.46835572
0.46772177
0.46754672
0.46677227
0.46703585
0.46737216
0.4681651
0.4686729
0.46833793
0.46767902
0.46749663
0.46674957
0.46700734
0.46732462
0.46808887
0.46863092
0.46831496
0.46763724
0.4674364
0.46672014
0.46696973
0.46727816
0.46801471
0.4685837
0.46828862
0.46760332
0.46737219
0.46668934
0.46692751
0.46723819
0.46794639
0.46853304
0.46826245
0.46758946
0.46731029
0.46666675
0.46688762
0.46721362
0.46789085
0.46848852
0.46485221
0.46455769
0.46441154
0.4640528
0.46424986
0.46461575
0.46508881
0.46531227
0.4648509
0.46452742
0.46439338
0.46404274
0.46423341
0.46457378
0.46503664
0.46529461
0.46484838
0.46449571
0.46437366
0.46403008
0.46421515
0.46453333
0.46498442
0.46527411
0.46484534
0.46446548
0.46435122
0.46401593
0.46419573
0.46449751
0.46493637
0.46525384
0.46484091
0.46443718
0.46432711
0.46400187
0.46417615
0.4644659
0.46489229
0.46523318
0.46483475
0.46441189
0.4643038
0.4639902
0.46415839
0.46443869
0.4648522
0.46521123
0.46482542
0.46439148
0.46428415
0.46398238
0.46414343
0.46441635
0.46481632
0.46518773
0.46479967
0.46437463
0.46426551
0.46397456
0.4641255
0.46439495
0.4647804
0.4651626
0.461351
0.46121693
0.4611988
0.4611074
0.46125665
0.46147332
0.46169338
0.46181684
0.46135291
0.46120251
0.46118707
0.46109436
0.46123803
0.4614455
0.46166386
0.46180631
0.46135422
0.46118777
0.46117616
0.46108266
0.46122136
0.46142027
0.46163517
0.46179485
0.46135581
0.46117492
0.46116726
0.46107509
0.46120932
0.46140078
0.46161054
0.46178464
0.46135746
0.46116445
0.46116038
0.46107146
0.46120142
0.46138642
0.46158994
0.46177547
0.46135917
0.46115703
0.46115588
0.4610718
0.4611975
0.4613767
0.46157319
0.46176684
0.46135953
0.46115249
0.46115297
0.46107545
0.46119669
0.46137065
0.46155956
0.46175827
0.46134709
0.46114684
0.46114469
0.46107668
0.46119226
0.46136248
0.46154442
0.46174807
0.45784879
0.4577975
0.45783948
0.45785839
0.45796923
0.45809108
0.45819242
0.45826115
0.45785063
0.45779239
0.45783517
0.45785062
0.45795712
0.45807529
0.45817609
0.45825452
0.45785243
0.4577877
0.4578323
0.45784499
0.4579475
0.45806179
0.45816075
0.4582477
0.45785498
0.45778495
0.45783217
0.45784368
0.45794253
0.45805277
0.4581486
0.45824219
0.45785824
0.4577845
0.45783464
0.45784625
0.45794158
0.45804775
0.45813962
0.45823784
0.4578622
0.45778668
0.45783962
0.45785223
0.45794406
0.45804617
0.45813363
0.45823437
0.45786607
0.45779126
0.45784637
0.45786095
0.4579492
0.45804721
0.45813009
0.45823159
0.45786377
0.45779599
0.45785104
0.45786913
0.45795327
0.4580475
0.45812651
0.45822876
0.45431324
0.45429813
0.45435016
0.45439711
0.45447779
0.45455318
0.45460523
0.45464731
0.45431439
0.45429683
0.45434943
0.45439351
0.454471
0.45454426
0.45459547
0.45464283
0.45431583
0.45429615
0.45434986
0.45439149
0.45446594
0.45453692
0.4545864
0.45463838
0.4543182
0.45429712
0.45435238
0.45439237
0.45446398
0.45453258
0.45457941
0.45463492
0.45432144
0.45429992
0.45435687
0.45439587
0.45446471
0.45453104
0.45457439
0.45463231
0.45432549
0.45430469
0.45436317
0.45440161
0.45446767
0.45453123
0.45457185
0.45463034
0.45433
0.4543114
0.45437093
0.45440924
0.45447248
0.45453313
0.45457121
0.45462908
0.45433248
0.45431938
0.4543788
0.45441772
0.45447785
0.45453552
0.45457153
0.45462861
0.45073184
0.45073037
0.45077397
0.450818
0.4508761
0.45092822
0.45096107
0.45098817
0.45073248
0.45073021
0.45077418
0.45081624
0.45087202
0.45092251
0.45095473
0.45098512
0.45073352
0.45073058
0.45077514
0.45081537
0.45086891
0.45091769
0.45094885
0.45098211
0.45073546
0.4507322
0.45077746
0.45081619
0.45086756
0.45091459
0.45094436
0.4509798
0.45073821
0.45073512
0.45078107
0.45081853
0.45086779
0.45091306
0.45094121
0.45097807
0.45074168
0.45073941
0.45078583
0.45082219
0.45086935
0.45091281
0.45093934
0.45097674
0.45074572
0.45074509
0.45079161
0.45082704
0.45087207
0.4509136
0.45093877
0.45097586
0.4507493
0.45075208
0.45079803
0.45083286
0.45087564
0.4509151
0.4509392
0.45097574
0.44710613
0.44710979
0.44714288
0.44717725
0.44721956
0.44725699
0.44727943
0.4472974
0.44710663
0.44710991
0.4471431
0.44717617
0.44721665
0.44725305
0.4472751
0.44729533
0.44710745
0.44711042
0.44714378
0.44717554
0.44721429
0.44724958
0.44727104
0.44729328
0.44710898
0.4471118
0.44714534
0.44717587
0.44721297
0.44724712
0.44726787
0.4472917
0.44711117
0.44711408
0.44714771
0.44717709
0.44721259
0.44724559
0.44726553
0.44729049
0.44711394
0.44711725
0.44715081
0.44717907
0.44721301
0.44724487
0.44726393
0.44728954
0.44711719
0.44712134
0.44715456
0.44718175
0.44721413
0.44724487
0.44726302
0.44728885
0.44712037
0.4471263
0.44715874
0.44718502
0.44721579
0.44724545
0.44726265
0.4472886
0.44344572
0.44345085
0.44347511
0.44350137
0.44353153
0.44355862
0.44357393
0.4435857
0.44344611
0.44345092
0.44347532
0.44350047
0.44352943
0.44355583
0.44357099
0.44358432
0.44344668
0.44345136
0.44347577
0.44349987
0.44352757
0.44355335
0.44356819
0.44358294
0.4434478
0.44345241
0.4434768
0.44349989
0.44352648
0.44355141
0.44356597
0.44358188
0.44344943
0.44345406
0.44347834
0.44350046
0.44352596
0.44355005
0.44356428
0.44358106
0.4434515
0.44345629
0.44348035
0.44350152
0.44352592
0.44354918
0.44356306
0.4435804
0.44345394
0.4434591
0.44348276
0.443503
0.44352631
0.44354873
0.4435623
0.4435799
0.44345637
0.44346241
0.44348537
0.44350477
0.44352695
0.44354848
0.44356183
0.44357962
0.43975909
0.43976442
0.4397824
0.43980213
0.4398237
0.43984258
0.43985285
0.43986051
0.43975937
0.43976458
0.43978256
0.43980146
0.43982219
0.43984063
0.43985086
0.43985957
0.43975982
0.43976492
0.4397829
0.43980096
0.43982086
0.43983884
0.43984896
0.43985863
0.43976064
0.43976572
0.4397836
0.43980087
0.43981997
0.43983749
0.43984743
0.4398579
0.43976182
0.43976692
0.43978465
0.43980116
0.43981947
0.4398365
0.43984623
0.43985733
0.43976332
0.43976849
0.439786
0.43980177
0.43981929
0.4398358
0.43984533
0.43985687
0.43976509
0.43977043
0.43978758
0.43980263
0.43981939
0.43983534
0.43984471
0.43985651
0.43976689
0.43977263
0.43978924
0.43980363
0.4398196
0.43983496
0.43984423
0.43985626
0.43605408
0.43605883
0.4360721
0.43608658
0.43610191
0.43611501
0.43612178
0.4361267
0.43605423
0.43605902
0.43607223
0.43608609
0.43610084
0.43611368
0.43612046
0.43612607
0.43605456
0.43605931
0.43607248
0.43608571
0.43609989
0.43611245
0.43611919
0.43612544
0.43605515
0.43605987
0.436073
0.43608561
0.43609922
0.43611151
0.43611814
0.43612494
0.43605599
0.43606073
0.43607369
0.43608578
0.4360988
0.43611081
0.4361173
0.43612455
0.43605704
0.43606183
0.43607458
0.43608615
0.43609857
0.43611031
0.43611665
0.43612423
0.43605829
0.43606315
0.43607562
0.43608669
0.43609858
0.43610989
0.43611616
0.43612396
0.43605958
0.43606462
0.43607671
0.43608729
0.43609864
0.4361095
0.43611574