/*--------------------------------*- C++ -*----------------------------------*\
  =========                 |
  \\      /  F ield         | OpenFOAM: The Open Source CFD Toolbox
   \\    /   O peration     | Website:  https://openfoam.org
    \\  /    A nd           | Version:  13
     \\/     M anipulation  |
\*---------------------------------------------------------------------------*/
FoamFile
{
    format      ascii;
    class       surfaceScalarField;
    location    "0.01";
    object      phi;
}
// * * * * * * * * * * * * * * * * * * * * * * * * * * * * * * * * * * * * * //

dimensions      [0 3 -1 0 0 0 0];

internalField   nonuniform List<scalar> 
150720
(
1.4848805e-11
2.679742e-09
8.9949289e-10
6.0863185e-14
-1.7767073e-11
2.6403911e-09
9.8636933e-10
-1.905917e-11
2.6444158e-09
9.5102089e-10
-6.5190206e-13
2.645725e-09
9.3001227e-10
1.7820672e-11
2.6457788e-09
9.298932e-10
1.6823962e-11
2.6445315e-09
9.5060979e-10
-1.5329883e-11
2.640522e-09
9.8577645e-10
2.6799275e-09
8.9887502e-10
1.2203106e-14
-4.439574e-11
4.1679588e-09
2.0161956e-09
8.6644273e-14
-1.0258651e-10
4.0042182e-09
2.154467e-09
-7.0603754e-11
3.9932748e-09
2.0792615e-09
-1.5847394e-12
3.999321e-09
2.0374883e-09
6.762846e-11
3.9994536e-09
2.0372153e-09
1.0028405e-10
3.9936631e-09
2.0783161e-09
4.3035355e-11
4.0047995e-09
2.1530745e-09
4.1686173e-09
2.0146116e-09
-1.6286236e-13
-7.9432745e-11
4.8668622e-09
2.7065391e-09
5.2336948e-14
-1.4709526e-10
4.5679698e-09
2.8299729e-09
-9.7007683e-11
4.5362475e-09
2.7330017e-09
-2.1637761e-12
4.5479582e-09
2.6825809e-09
9.2940183e-11
4.548169e-09
2.6822426e-09
1.4389524e-10
4.5369489e-09
2.7318211e-09
7.7520895e-11
4.5690294e-09
2.8282065e-09
4.8682308e-09
2.7044107e-09
-4.412332e-13
-9.5675952e-11
5.0383793e-09
3.1161955e-09
-1.5985382e-14
-1.6215109e-10
4.6307048e-09
3.1957608e-09
-1.0597271e-10
4.5830884e-09
3.0890014e-09
-2.4853172e-12
4.5995612e-09
3.0369302e-09
1.0128644e-10
4.5998354e-09
3.0365825e-09
1.5840267e-10
4.5840713e-09
3.087782e-09
9.3353364e-11
4.6321859e-09
3.1939134e-09
5.0405025e-09
3.113865e-09
-7.6269615e-13
-1.0054233e-10
4.8735021e-09
3.3234998e-09
-1.0090247e-13
-1.6088812e-10
4.3970398e-09
3.3519901e-09
-1.0543748e-10
4.3417143e-09
3.2439028e-09
-2.6483842e-12
4.3605681e-09
3.1941833e-09
1.004239e-10
4.360889e-09
3.1938534e-09
1.5680762e-10
4.3429194e-09
3.2427476e-09
9.7901093e-11
4.3988478e-09
3.350224e-09
4.8762921e-09
3.3211896e-09
-1.0987326e-12
-9.6766233e-11
4.5097632e-09
3.3846352e-09
-1.9214431e-13
-1.5014307e-10
4.0074497e-09
3.3669051e-09
-9.9493306e-11
3.9517937e-09
3.2632089e-09
-2.7220397e-12
3.9698434e-09
3.2178915e-09
9.4316699e-11
3.9701994e-09
3.2175889e-09
1.4585207e-10
3.9531615e-09
3.2621605e-09
9.3861277e-11
4.0094844e-09
3.3652922e-09
4.5130616e-09
3.3824667e-09
-1.4369009e-12
-8.6403928e-11
4.0442947e-09
3.3420515e-09
-2.8226933e-13
-1.3430434e-10
3.5567128e-09
3.2885341e-09
-9.0555244e-11
3.5050812e-09
3.1928601e-09
-2.7472666e-12
3.5191248e-09
3.1528075e-09
8.5304788e-11
3.5195114e-09
3.1525328e-09
1.2986724e-10
3.506567e-09
3.1919288e-09
8.3267428e-11
3.5588861e-09
3.2870949e-09
4.0479184e-09
3.3400773e-09
-1.7698522e-12
-6.9610204e-11
3.2386916e-09
-3.6872137e-13
3.5314375e-09
-1.1754003e-10
3.1592048e-09
3.1012933e-09
-8.082662e-11
3.0726899e-09
3.0515333e-09
-2.7434311e-12
3.0378449e-09
3.0590521e-09
7.5544517e-11
3.0375959e-09
3.0594829e-09
1.1297731e-10
3.0718748e-09
3.0531148e-09
6.6306213e-11
3.1579417e-09
3.103471e-09
3.2369282e-09
-2.0670413e-12
3.5352188e-09
4.3844204e-11
4.3572871e-10
4.1984929e-10
7.0711981e-14
3.6312307e-11
4.5686707e-10
5.3703418e-10
1.7501978e-11
4.3847306e-10
5.3135817e-10
-1.0988505e-12
4.337816e-10
5.1483152e-10
-1.9567899e-11
4.3382399e-10
5.1453827e-10
-3.7873934e-11
4.38632e-10
5.3028384e-10
-4.4649063e-11
4.5704293e-10
5.3550866e-10
4.3590701e-10
4.1832679e-10
-7.8209642e-15
8.8180922e-11
1.1487117e-09
1.215037e-09
-5.3058914e-15
6.9420697e-11
1.170288e-09
1.4598063e-09
3.072595e-11
1.1233311e-09
1.4330982e-09
-2.7968696e-12
1.1129859e-09
1.3918068e-09
-3.5974687e-11
1.1130916e-09
1.3911255e-09
-7.3464565e-11
1.12387e-09
1.4305679e-09
-9.0388338e-11
1.1709332e-09
1.456108e-09
1.1495836e-09
1.2109725e-09
-4.2580721e-13
1.064519e-10
1.8552455e-09
1.8937787e-09
-2.2532957e-13
7.8365124e-11
1.8460342e-09
2.1823135e-09
3.1753396e-11
1.7702658e-09
2.1326788e-09
-3.9043718e-12
1.7557842e-09
2.0754404e-09
-3.9099547e-11
1.7559445e-09
2.0745848e-09
-8.4136329e-11
1.7712832e-09
2.1294448e-09
-1.0977272e-10
1.8472838e-09
2.1774922e-09
1.8571742e-09
1.8881448e-09
-1.0972853e-12
1.0836278e-10
2.4337324e-09
2.4298814e-09
-5.3560302e-13
7.3839281e-11
2.3721611e-09
2.7041574e-09
2.6724957e-11
2.272359e-09
2.6340226e-09
-4.5481478e-12
2.2556669e-09
2.5683206e-09
-3.5317461e-11
2.2558639e-09
2.5674324e-09
-8.0714001e-11
2.273848e-09
2.6306138e-09
-1.1253292e-10
2.3740229e-09
2.6989933e-09
2.4368364e-09
2.4235546e-09
-1.8847761e-12
1.0107048e-10
2.8362077e-09
2.8208492e-09
-8.9520863e-13
6.3602919e-11
2.714781e-09
3.0468377e-09
1.9665214e-11
2.5992437e-09
2.9609558e-09
-4.8863119e-12
2.5818947e-09
2.8925071e-09
-2.8941865e-11
2.5821151e-09
2.8916578e-09
-7.1160553e-11
2.6011446e-09
2.9576696e-09
-1.0589691e-10
2.7171889e-09
3.0417943e-09
2.8404103e-09
2.8144357e-09
-2.7169071e-12
8.9337308e-11
3.0588723e-09
3.0739094e-09
-1.2760223e-12
5.178163e-11
2.8820342e-09
3.2372076e-09
1.2580348e-11
2.7603991e-09
3.1412548e-09
-5.0410331e-12
2.743294e-09
3.0741136e-09
-2.2204562e-11
2.7435367e-09
3.0733309e-09
-5.9762907e-11
2.7626322e-09
3.1382313e-09
-9.4691098e-11
2.8848897e-09
3.2325195e-09
3.0639691e-09
3.0677729e-09
-3.5560414e-12
7.5909711e-11
3.1236788e-09
3.2029911e-09
-1.6557994e-12
4.0116711e-11
2.9024711e-09
3.3038902e-09
6.2623726e-12
2.7838512e-09
3.2032624e-09
-5.0939394e-12
2.7673845e-09
3.1400733e-09
-1.605397e-11
2.7676672e-09
3.1393623e-09
-4.836875e-11
2.7863257e-09
3.2005501e-09
-8.1699635e-11
2.9056642e-09
3.2996513e-09
3.1294087e-09
3.1973163e-09
-4.3783329e-12
6.2484828e-11
3.2181067e-09
-2.0140615e-12
3.083793e-09
2.9499386e-11
3.2692614e-09
2.8253999e-09
9.2357589e-13
3.1686151e-09
2.7165017e-09
-5.0916473e-12
3.1111067e-09
2.7001378e-09
-1.0899058e-11
3.1104635e-09
2.700607e-09
-3.7937056e-11
3.1662149e-09
2.7190236e-09
-6.866554e-11
3.2654893e-09
2.8288451e-09
3.2129579e-09
-5.1210948e-12
3.0898346e-09
3.5962377e-11
9.5088792e-11
2.8869605e-10
1.0208642e-13
3.6568761e-11
1.2432948e-10
4.1209833e-10
1.8904826e-11
1.1903547e-10
4.2998665e-10
-1.3781695e-12
1.1452409e-10
4.2059044e-10
-2.152992e-11
1.1458214e-10
4.201079e-10
-3.8526811e-11
1.192253e-10
4.2805544e-10
-3.6968641e-11
1.2454807e-10
4.0940243e-10
9.5386972e-11
2.8595276e-10
1.8430524e-14
8.2474684e-11
3.6988631e-10
8.5773969e-10
2.5140379e-14
8.5721821e-11
4.3636721e-10
1.1445214e-09
4.3946182e-11
4.162886e-10
1.1776207e-09
-3.5107055e-12
4.0148506e-10
1.1523028e-09
-5.0595345e-11
4.015873e-10
1.151205e-09
-9.0796295e-11
4.1689724e-10
1.1730969e-09
-8.52411e-11
4.3705149e-10
1.1380494e-09
3.7103528e-10
8.5057293e-10
-4.8986449e-13
1.1291614e-10
7.5944785e-10
1.3915602e-09
-2.5909852e-13
1.1595077e-10
8.4934888e-10
1.7662972e-09
5.863393e-11
8.0822336e-10
1.7980609e-09
-4.8882329e-12
7.8066056e-10
1.7597871e-09
-6.7900425e-11
7.8075787e-10
1.7584265e-09
-1.2317511e-10
8.093474e-10
1.7922693e-09
-1.1707443e-10
8.5058325e-10
1.7578598e-09
7.6175304e-10
1.3816873e-09
-1.3347225e-12
1.2939102e-10
1.190153e-09
1.8704517e-09
-6.6648653e-13
1.2968973e-10
1.2802911e-09
2.2729164e-09
6.4566486e-11
1.2147953e-09
2.2925739e-09
-5.6728577e-12
1.1747224e-09
2.2444981e-09
-7.5360048e-11
1.1747809e-09
2.2430967e-09
-1.3826672e-10
1.2164311e-09
2.2864368e-09
-1.345993e-10
1.2820811e-09
2.2638281e-09
1.193705e-09
1.859348e-09
-2.3445916e-12
1.3515247e-10
1.6022125e-09
2.2747818e-09
-1.1444675e-12
1.3131335e-10
1.6699895e-09
2.6609785e-09
6.4248196e-11
1.5796512e-09
2.6631651e-09
-6.0727684e-12
1.5289676e-09
2.6085828e-09
-7.5856367e-11
1.5289759e-09
2.6072463e-09
-1.4071326e-10
1.5817463e-09
2.6572113e-09
-1.4116082e-10
1.6722963e-09
2.6520267e-09
1.6069305e-09
2.2634691e-09
-3.4197553e-12
1.3237615e-10
1.9543543e-09
2.5910419e-09
-1.6505321e-12
1.2420008e-10
1.9821174e-09
2.9332557e-09
5.9671758e-11
1.8687214e-09
2.9167129e-09
-6.2485602e-12
1.8102477e-09
2.8587538e-09
-7.1674887e-11
1.8102155e-09
2.8575177e-09
-1.3410576e-10
1.8712068e-09
2.9112017e-09
-1.390221e-10
1.9848821e-09
2.9248501e-09
1.9600435e-09
2.5801422e-09
-4.5044642e-12
1.222984e-10
2.2248179e-09
2.8123802e-09
-2.1510365e-12
1.1091954e-10
2.1991641e-09
3.0982224e-09
5.2382286e-11
2.0663547e-09
3.0641663e-09
-6.3062113e-12
2.0034477e-09
3.0055618e-09
-6.4551734e-11
2.0033967e-09
3.0044267e-09
-1.2115116e-10
2.0691595e-09
3.0591969e-09
-1.2947402e-10
2.2023159e-09
3.0905403e-09
2.2312288e-09
2.8022204e-09
-5.5633675e-12
1.0720665e-10
2.9400451e-09
-2.6177593e-12
2.3982905e-09
9.4581525e-11
3.1703711e-09
2.3106796e-09
4.4077607e-11
3.120484e-09
2.1649898e-09
-6.300178e-12
3.0634907e-09
2.1014416e-09
-5.6305986e-11
3.062445e-09
2.101421e-09
-1.0501436e-10
3.1160767e-09
2.168006e-09
-1.1490721e-10
3.1634758e-09
2.3142222e-09
2.9307651e-09
-6.5165917e-12
2.405031e-09
1.6136869e-11
4.0229425e-11
2.3219334e-10
1.3644143e-13
1.9785203e-11
5.563533e-11
3.5281468e-10
1.0757074e-11
5.3117395e-11
3.858974e-10
-1.7931325e-12
4.8351078e-11
3.8478958e-10
-1.4222158e-11
4.8381004e-11
3.8415593e-10
-2.2345991e-11
5.3298039e-11
3.8288125e-10
-1.7453951e-11
5.5848718e-11
3.4866169e-10
4.0571058e-11
2.2788018e-10
4.7587776e-14
4.5167506e-11
1.5032512e-10
7.0237669e-10
9.9814763e-14
5.5054841e-11
1.9778747e-10
9.9248197e-10
2.9988748e-11
1.8897782e-10
1.0668264e-09
-4.5642282e-12
1.7363809e-10
1.0615687e-09
-3.8741259e-11
1.735885e-10
1.0601746e-09
-6.1703575e-11
1.8958495e-10
1.0597724e-09
-4.8804827e-11
1.9843622e-10
9.8256319e-10
1.5174632e-10
6.9115114e-10
-5.5827355e-13
6.9488379e-11
3.2329598e-10
1.1492677e-09
-1.6675027e-13
8.3559161e-11
4.0521602e-10
1.5447979e-09
4.5616309e-11
3.8576153e-10
1.63922e-09
-6.3253322e-12
3.5683828e-10
1.6285285e-09
-5.7751395e-11
3.5658402e-10
1.626857e-09
-9.2996072e-11
3.8689853e-10
1.6302005e-09
-7.495551e-11
4.0632692e-10
1.5319286e-09
3.2616519e-10
1.1338785e-09
-1.565498e-12
8.8819854e-11
5.4557144e-10
1.5599196e-09
-5.63196e-13
1.0449081e-10
6.5355383e-10
2.0089077e-09
5.7025417e-11
6.1881372e-10
2.1069871e-09
-7.2962101e-12
5.7548091e-10
2.0901771e-09
-7.1077561e-11
5.7495588e-10
2.0885062e-09
-1.1564116e-10
6.2046084e-10
2.0974381e-09
-9.5651839e-11
6.5506609e-10
1.9950996e-09
5.4991765e-10
1.5427058e-09
-2.7620571e-12
1.0259865e-10
7.9526652e-10
1.9235118e-09
-1.0237783e-12
1.1761546e-10
9.143132e-10
2.3852023e-09
6.4058647e-11
8.6057603e-10
2.4749596e-09
-7.7665556e-12
8.0390307e-10
2.4519859e-09
-7.909114e-11
8.0310296e-10
2.4504238e-09
-1.2977813e-10
8.6266158e-10
2.4656975e-09
-1.1045455e-10
9.1613977e-10
2.3716294e-09
8.0089396e-10
1.9060579e-09
-4.0196542e-12
1.1045355e-10
1.0472962e-09
2.2300582e-09
-1.4995457e-12
1.2317794e-10
1.1598982e-09
2.6749464e-09
6.6946305e-11
1.0850954e-09
2.7484252e-09
-7.9582778e-12
1.0177005e-09
2.719861e-09
-8.2429681e-11
1.01667e-09
2.718422e-09
-1.3595032e-10
1.08754e-09
2.7398439e-09
-1.1911735e-10
1.1619613e-09
2.6621956e-09
1.0538886e-09
2.2132993e-09
-5.2690758e-12
1.1214922e-10
1.2781003e-09
2.4713801e-09
-1.9532386e-12
1.2200994e-10
1.36677e-09
2.8814898e-09
6.6273184e-11
1.2711694e-09
2.9338291e-09
-8.0145839e-12
1.1968201e-09
2.90073e-09
-8.19369e-11
1.1956295e-09
2.8993895e-09
-1.3517927e-10
1.273904e-09
2.9260753e-09
-1.2148454e-10
1.3690073e-09
2.8697996e-09
1.2853082e-09
2.4557856e-09
-6.4692335e-12
1.0801679e-10
2.6414172e-09
-2.3660545e-12
1.4710775e-09
1.1568165e-10
3.0107406e-09
1.5187357e-09
6.2935054e-11
3.038714e-09
1.405686e-09
-8.0003317e-12
3.002534e-09
1.3287122e-09
-7.8674038e-11
3.0012593e-09
1.3274889e-09
-1.2910137e-10
3.031808e-09
1.4086001e-09
-1.180313e-10
3.0001817e-09
1.5212314e-09
2.6271642e-09
-7.5262041e-12
1.478404e-09
9.0950807e-12
2.0053747e-11
2.0286398e-10
1.8054643e-13
1.0585892e-11
3.2444472e-11
3.1887942e-10
4.9066982e-12
3.1202188e-11
3.6037442e-10
-2.4150724e-12
2.6746315e-11
3.6536505e-10
-9.6559467e-12
2.6696419e-11
3.647004e-10
-1.4118522e-11
3.1426441e-11
3.559174e-10
-1.0946956e-11
3.275543e-11
3.127347e-10
2.0616036e-11
1.9625316e-10
6.4043922e-14
2.490742e-11
8.1522075e-11
6.1581439e-10
1.8657202e-13
3.0525135e-11
1.1779884e-10
9.0150991e-10
1.524498e-11
1.1254962e-10
1.0007591e-09
-6.1189742e-12
9.813836e-11
1.0115407e-09
-2.7201318e-11
9.7776051e-11
1.0101773e-09
-3.9671556e-11
1.1342048e-10
9.9024857e-10
-2.9990314e-11
1.1876846e-10
8.8686894e-10
8.38391e-11
5.9865268e-10
-7.1490067e-13
3.9042906e-11
1.7990783e-10
1.0119165e-09
-7.7462353e-14
4.868712e-11
2.4277833e-10
1.4101742e-09
2.5569245e-11
2.3042591e-10
1.5444616e-09
-8.4106929e-12
2.0328125e-10
1.5573656e-09
-4.2034651e-11
2.0237291e-10
1.5558841e-09
-6.1587275e-11
2.3214756e-10
1.531026e-09
-4.6633056e-11
2.4443471e-10
1.3913081e-09
1.8455477e-10
9.8852272e-10
-1.9929696e-12
5.1598754e-11
3.0804881e-10
1.3806862e-09
-5.0628736e-13
6.4456372e-11
3.9407346e-10
1.844755e-09
3.5054555e-11
3.7135798e-10
1.9954569e-09
-9.6033856e-12
3.3070503e-10
2.0074113e-09
-5.3952745e-11
3.2913532e-10
2.0060931e-09
-7.9566339e-11
3.7391274e-10
1.9812865e-09
-6.1010728e-11
3.9627922e-10
1.8246995e-09
3.1500596e-10
1.3547296e-09
-3.4857016e-12
6.2302284e-11
4.5678653e-10
1.7134505e-09
-9.7868297e-13
7.7212697e-11
5.5807677e-10
2.2062886e-09
4.2999363e-11
5.2197249e-10
2.3585584e-09
-1.0113714e-11
4.6864436e-10
2.3671596e-09
-6.3022482e-11
4.6642055e-10
2.3660474e-09
-9.3531113e-11
5.2523549e-10
2.3448834e-09
-7.3030546e-11
5.6064197e-10
2.1867661e-09
4.6567095e-10
1.6873842e-09
-5.0217541e-12
7.061538e-11
6.1491427e-10
2.0027626e-09
-1.4474541e-12
8.6359464e-11
7.206385e-10
2.4966406e-09
4.8898224e-11
6.6885991e-10
2.638999e-09
-1.02588e-11
6.0505793e-10
2.6426044e-09
-6.9327109e-11
6.0228306e-10
2.6416279e-09
-1.0332203e-10
6.7268211e-10
2.6263923e-09
-8.2336954e-11
7.2339224e-10
2.4784603e-09
6.2515351e-10
1.9779914e-09
-6.5115376e-12
7.5923486e-11
7.6988365e-10
2.242357e-09
-1.8696649e-12
9.1686224e-11
8.6758904e-10
2.7187766e-09
5.2571658e-11
7.9938115e-10
2.8424225e-09
-1.0240997e-11
7.2842203e-10
2.8401786e-09
-7.3056739e-11
7.2524833e-10
2.83924e-09
-1.0900769e-10
8.0363429e-10
2.831074e-09
-8.8435072e-11
8.7040375e-10
2.7022154e-09
7.8087119e-10
2.219538e-09
-7.9051005e-12
7.7725361e-11
2.4273924e-09
-2.2414658e-12
9.0842452e-10
9.3404912e-11
2.8772291e-09
9.85421e-10
5.409333e-11
2.9749146e-09
9.0249212e-10
-1.0142935e-11
2.9668007e-09
8.2839158e-10
-7.4538902e-11
2.9658232e-09
8.2508034e-10
-1.1088832e-10
2.9648414e-09
9.069503e-10
-9.104803e-11
2.8623402e-09
9.8840492e-10
2.4067443e-09
-9.0875459e-12
9.1933057e-10
3.4669258e-12
1.116337e-11
1.8796865e-10
2.650596e-13
2.710377e-12
1.9858657e-11
2.9977732e-10
-5.1737108e-13
1.9223534e-11
3.4437864e-10
-3.2634544e-12
1.5749062e-11
3.5236208e-10
-6.0302749e-12
1.5495557e-11
3.5197168e-10
-7.826214e-12
1.9616299e-11
3.3809705e-10
-6.2305347e-12
2.0412846e-11
2.9072619e-10
1.2134146e-11
1.7782801e-10
6.0485999e-14
9.9246791e-12
4.4115517e-11
5.7254935e-10
3.8823806e-13
9.7639669e-12
7.1109249e-11
8.5042004e-10
1.2254151e-12
6.8331921e-11
9.6018932e-10
-8.2564938e-12
5.7179138e-11
9.7959251e-10
-1.7752873e-11
5.5964126e-11
9.7920514e-10
-2.2997534e-11
6.9557247e-11
9.455523e-10
-1.7463568e-11
7.2511731e-11
8.292361e-10
4.7769855e-11
5.4657655e-10
-1.0231297e-12
1.6295124e-11
9.7801858e-11
9.4171278e-10
2.2228815e-13
1.8076114e-11
1.463552e-10
1.3331473e-09
5.2881387e-12
1.3948913e-10
1.4860924e-09
-1.1258511e-11
1.1827653e-10
1.5128149e-09
-2.8078701e-11
1.1568191e-10
1.5129866e-09
-3.6641181e-11
1.4159417e-10
1.4675516e-09
-2.7500602e-11
1.4841908e-10
1.3062602e-09
1.0490769e-10
9.0665864e-10
-2.7743518e-12
2.2761212e-11
1.6979131e-10
1.2861332e-09
-1.9766156e-13
2.7110834e-11
2.3836364e-10
1.7483969e-09
1.0968527e-11
2.250864e-10
1.9260019e-09
-1.2706339e-11
1.9308752e-10
1.9562752e-09
-3.6946002e-11
1.8893706e-10
1.9570777e-09
-4.8687457e-11
2.2802135e-10
1.9066008e-09
-3.6586566e-11
2.4077569e-10
1.720242e-09
1.80208e-10
1.2476285e-09
-4.7857759e-12
2.9173956e-11
2.5585481e-10
1.5989161e-09
-7.0298663e-13
3.616624e-11
3.3956604e-10
2.0980939e-09
1.7267761e-11
3.1762777e-10
2.2849155e-09
-1.3203282e-11
2.7541404e-10
2.3153041e-09
-4.451255e-11
2.6978419e-10
2.3165095e-09
-5.9229718e-11
3.2129059e-10
2.2663314e-09
-4.4825056e-11
3.4203523e-10
2.0711019e-09
2.6890552e-10
1.5606797e-09
-6.8181215e-12
3.5185379e-11
3.502843e-10
1.8743406e-09
-1.1928348e-12
4.4498851e-11
4.4214928e-10
2.3847439e-09
2.3358799e-11
4.0972452e-10
2.5680423e-09
-1.3209655e-11
3.5895203e-10
2.5956349e-09
-5.0834162e-11
3.5210952e-10
2.596927e-09
-6.8177448e-11
4.1402272e-10
2.5510034e-09
-5.2129881e-11
4.444803e-10
2.3599677e-09
3.6506724e-10
1.838446e-09
-8.7462024e-12
4.0329314e-11
4.463494e-10
2.1075979e-09
-1.635301e-12
5.1558627e-11
5.382106e-10
2.6114859e-09
2.8680526e-11
4.9437695e-10
2.7806481e-09
-1.3018919e-11
4.3759332e-10
2.8032367e-09
-5.5903154e-11
4.2989671e-10
2.8043371e-09
-7.5408171e-11
4.9926423e-10
2.7653376e-09
-5.8211038e-11
5.4031067e-10
2.589188e-09
4.6194299e-10
2.074951e-09
-1.0499774e-11
4.3881512e-11
2.2947193e-09
-2.049346e-12
5.3719037e-10
5.6957635e-11
2.7823269e-09
6.2003663e-10
3.2840078e-11
2.9279616e-09
5.6544753e-10
-1.2742417e-11
2.9442516e-09
5.0572493e-10
-5.9721764e-11
2.9449564e-09
4.9774287e-10
-8.066911e-11
2.9142617e-09
5.7079129e-10
-6.2683197e-11
2.7623937e-09
6.2227127e-10
2.265489e-09
-1.1922639e-11
5.524378e-10
-9.3303424e-13
4.8285904e-12
1.83702e-10
3.7111635e-13
-4.6148708e-12
1.1182778e-11
2.922764e-10
-6.3219194e-12
1.1243469e-11
3.3484224e-10
-4.6708751e-12
8.6934788e-12
3.4201757e-10
-3.5883009e-12
8.2049409e-12
3.4268418e-10
-3.3251185e-12
1.1186359e-11
3.2664752e-10
-3.3046681e-12
1.172689e-11
2.7897886e-10
6.1227317e-12
1.6833302e-10
6.7607703e-14
-2.3163603e-12
1.9208209e-11
5.5973998e-10
7.4612884e-13
-9.7259572e-12
3.9063886e-11
8.2994855e-10
-1.3777802e-11
3.8919429e-11
9.3656522e-10
-1.179786e-11
3.1026155e-11
9.5527991e-10
-1.1001095e-11
2.8796176e-11
9.5781716e-10
-1.0545197e-11
3.9741888e-11
9.1654089e-10
-9.2071751e-12
4.0825322e-11
7.9879966e-10
2.4626652e-11
5.2027945e-10
-1.413977e-12
-2.6725096e-12
4.3794084e-11
9.189719e-10
8.2753093e-13
-1.0939843e-11
7.9925348e-11
1.3005532e-09
-1.6266189e-11
7.8399117e-11
1.451939e-09
-1.599992e-11
6.3798012e-11
1.4797768e-09
-1.7510813e-11
5.8906779e-11
1.4843869e-09
-1.7338195e-11
8.0831693e-11
1.4262892e-09
-1.4458363e-11
8.2890136e-11
1.2613156e-09
5.4651152e-11
8.6595621e-10
-3.7804149e-12
-1.7738879e-12
7.8437182e-11
1.2525471e-09
7.1690855e-13
-8.8738332e-12
1.3032712e-10
1.7050951e-09
-1.4995172e-11
1.2577029e-10
1.8847521e-09
-1.7922162e-11
1.0402652e-10
1.9189737e-09
-2.3235982e-11
9.6118283e-11
1.92518e-09
-2.3800581e-11
1.3001426e-10
1.8579829e-09
-1.9336985e-11
1.3414029e-10
1.6645282e-09
9.4632334e-11
1.1947651e-09
-6.4547004e-12
3.0799315e-13
1.2181741e-10
1.5547263e-09
5.0156707e-13
-4.3858648e-12
1.8655815e-10
2.0465568e-09
-1.125609e-11
1.7733586e-10
2.2402202e-09
-1.8455251e-11
1.4880495e-10
2.2777249e-09
-2.8544458e-11
1.3804995e-10
2.2846671e-09
-3.0245639e-11
1.8332192e-10
2.2147249e-09
-2.4118539e-11
1.9088248e-10
2.0082327e-09
1.4241699e-10
1.4978815e-09
-9.1049742e-12
3.378665e-12
1.7145882e-10
1.821059e-09
2.6154477e-13
1.5895259e-12
2.4475e-10
2.3283412e-09
-6.1565563e-12
2.2943234e-10
2.523692e-09
-1.8277231e-11
1.9520554e-10
2.561355e-09
-3.3616973e-11
1.8214609e-10
2.5681707e-09
-3.6752587e-11
2.3702328e-10
2.5004377e-09
-2.8931587e-11
2.4934592e-10
2.2936832e-09
1.9523541e-10
1.7682588e-09
-1.1562785e-11
6.9581015e-12
2.2436376e-10
2.047891e-09
-1.5617879e-13
8.1085314e-12
3.0096918e-10
2.5541163e-09
-4.231322e-13
2.7828545e-10
2.7403267e-09
-1.781987e-11
2.4048857e-10
2.7753505e-09
-3.8437502e-11
2.2571704e-10
2.7813838e-09
-4.3207684e-11
2.8765456e-10
2.7194765e-09
-3.3684499e-11
3.0567181e-10
2.5233389e-09
2.4982801e-10
2.0004127e-09
-1.3738748e-11
1.0364669e-11
2.2321311e-09
-5.287226e-13
2.7711602e-10
1.4730093e-11
2.7279405e-09
3.5099013e-10
4.8216388e-12
2.8950723e-09
3.2108319e-10
-1.7240465e-11
2.9253455e-09
2.8145683e-10
-4.2940488e-11
2.9302451e-09
2.6612837e-10
-4.9163593e-11
2.8765929e-09
3.3154642e-10
-3.8077373e-11
2.7009162e-09
3.5606314e-10
2.1902953e-09
-1.5439152e-11
3.0238353e-10
-6.0574658e-12
-4.7389062e-13
1.8955371e-10
6.7966535e-13
-1.3592436e-11
3.5081897e-12
2.9630319e-10
-1.3260898e-11
4.6825034e-12
3.2982821e-10
-5.8912966e-12
3.196436e-12
3.3145155e-10
-5.284094e-13
1.4658248e-12
3.3585548e-10
3.0742248e-13
3.3330959e-12
3.2247861e-10
-8.7176512e-13
4.0801403e-12
2.7607793e-10
2.0186089e-12
1.6556957e-10
-1.2690827e-13
-1.6285492e-11
-2.0960964e-12
5.7577118e-10
1.8765236e-12
-3.289596e-11
1.1414115e-11
8.3865311e-10
-3.1483309e-11
1.4036442e-11
9.2579864e-10
-1.5000172e-11
9.5432273e-12
9.3244999e-10
-3.2092005e-12
2.3190564e-12
9.4517297e-10
-5.2781689e-13
7.9074602e-12
9.0928515e-10
-2.8906527e-12
1.1070744e-11
7.9417191e-10
5.4558506e-12
5.1671791e-10
-2.7663416e-12
-2.4108502e-11
-2.2512552e-12
9.4033878e-10
2.8968075e-12
-4.4756381e-11
2.3383442e-11
1.3092318e-09
-4.1488283e-11
2.6235327e-11
1.4364721e-09
-2.0275698e-11
1.8115963e-11
1.4499915e-09
-5.8972828e-12
3.1708028e-12
1.4691567e-09
-1.7226062e-12
1.35879e-11
1.4164341e-09
-4.7832771e-12
2.0008963e-11
1.255438e-09
1.0527841e-11
8.6279417e-10
-6.69321e-12
-2.9228696e-11
1.2460467e-12
1.2745194e-09
3.7591535e-12
-5.0224836e-11
3.9180106e-11
1.7102946e-09
-4.5080132e-11
4.0687324e-11
1.8651554e-09
-2.2597868e-11
2.8760877e-11
1.8858465e-09
-8.6164057e-12
5.8097732e-12
1.9085596e-09
-3.594501e-12
2.1756372e-11
1.8447925e-09
-6.7809116e-12
3.1391232e-11
1.6563324e-09
1.8115871e-11
1.1913638e-09
-1.0967696e-11
-3.1812448e-11
9.5870802e-12
1.5737298e-09
4.4679044e-12
-5.0679157e-11
5.8149804e-11
2.0464538e-09
-4.4176383e-11
5.688355e-11
2.2175212e-09
-2.3200942e-11
4.138963e-11
2.2441207e-09
-1.1807284e-11
1.1591723e-11
2.2674915e-09
-6.5277124e-12
3.3609622e-11
2.1975921e-09
-9.2011219e-12
4.5589007e-11
1.9967083e-09
2.8824221e-11
1.4930418e-09
-1.5069778e-11
-3.213e-11
2.2878767e-11
1.8348832e-09
5.0141301e-12
-4.7455221e-11
7.9216867e-11
2.3225993e-09
-4.039789e-11
7.4100636e-11
2.4994176e-09
-2.3010897e-11
5.5714707e-11
2.529643e-09
-1.5708985e-11
2.1036746e-11
2.5514237e-09
-1.0683464e-11
4.9287086e-11
2.4797347e-09
-1.2269101e-11
6.2537649e-11
2.2783202e-09
4.2757909e-11
1.7607838e-09
-1.8727789e-11
-3.050737e-11
4.0271054e-11
2.0556304e-09
5.3757318e-12
-4.1702884e-11
1.0103067e-10
2.5434981e-09
-3.4969848e-11
9.1399844e-11
2.7162945e-09
-2.2592563e-11
7.1209598e-11
2.7474783e-09
-2.0292214e-11
3.3859255e-11
2.7662609e-09
-1.5951627e-11
6.7873553e-11
2.6965494e-09
-1.6004634e-11
8.1622903e-11
2.5043067e-09
5.9415475e-11
1.9895384e-09
-2.1787889e-11
-2.788113e-11
2.2339606e-09
5.4098725e-12
6.0912769e-11
-3.4435907e-11
2.7139428e-09
1.2158318e-10
-2.8886594e-11
2.8730276e-09
1.0789526e-10
-2.211308e-11
2.9027381e-09
8.7043483e-11
-2.5356243e-11
2.917861e-09
4.9486566e-11
-2.1792956e-11
2.8526356e-09
8.8267594e-11
-2.0070985e-11
2.6785612e-09
1.0225587e-10
2.1754462e-09
-2.3935798e-11
7.8129304e-11
-1.3134984e-11
-7.1831039e-12
2.0894769e-10
9.2412887e-13
-2.9310805e-11
-4.9478123e-12
3.1742684e-10
-2.4655138e-11
-2.7264074e-12
3.2789896e-10
-9.045756e-12
-3.0477304e-12
3.1888991e-10
2.5436224e-12
-1.0635633e-11
3.3490174e-10
7.4476114e-12
-1.5266146e-11
3.3284078e-10
2.1925705e-12
-8.9787206e-12
2.903117e-10
-5.3569584e-12
1.7367884e-10
-5.5971548e-13
-3.5711254e-11
-2.9120379e-11
6.3001255e-10
3.4071831e-12
-7.1312111e-11
-2.2494321e-11
8.9180049e-10
-5.9786799e-11
-1.2022751e-11
9.2356969e-10
-2.2876706e-11
-1.3137746e-11
9.0562993e-10
3.8518723e-12
-3.5644684e-11
9.4345346e-10
1.6928269e-11
-3.6376521e-11
9.1731915e-10
5.8113421e-12
-3.0970269e-11
8.272804e-10
-1.994866e-11
5.4196215e-10
-4.8411793e-12
-5.3798486e-11
-5.9837143e-11
1.018766e-09
6.08809e-12
-9.9090272e-11
-4.7054558e-11
1.3790838e-09
-8.0874954e-11
-2.642573e-11
1.4326598e-09
-3.0808012e-11
-2.8403694e-11
1.4151905e-09
4.2997865e-12
-6.791739e-11
1.4663216e-09
2.3794545e-11
-5.8863391e-11
1.4194262e-09
8.9194753e-12
-6.0844665e-11
1.3001875e-09
-4.1280673e-11
9.0359506e-10
-1.0549383e-11
-6.7018442e-11
-9.3353738e-11
1.3663486e-09
8.7058969e-12
-1.1503442e-10
-7.2553865e-11
1.7838099e-09
-9.1049146e-11
-4.3376773e-11
1.8581212e-09
-3.430003e-11
-4.615263e-11
1.8468463e-09
4.0802971e-12
-1.0143898e-10
1.9037008e-09
2.8138465e-11
-8.1473741e-11
1.8433447e-09
1.1470703e-11
-8.8337929e-11
1.7004934e-09
-6.5917974e-11
1.243745e-09
-1.6273141e-11
-7.5795036e-11
-1.2490698e-10
1.6699256e-09
1.1152481e-11
-1.2168206e-10
-9.5126769e-11
2.1149137e-09
-9.3517072e-11
-6.0452975e-11
2.2064324e-09
-3.527605e-11
-6.3924582e-11
2.2036516e-09
2.685028e-12
-1.3147555e-10
2.259567e-09
2.9645117e-11
-1.010382e-10
2.1901965e-09
1.3075379e-11
-1.1135127e-10
2.0362914e-09
-9.0258991e-11
1.5517263e-09
-2.1268028e-11
-8.0563963e-11
-1.5125917e-10
1.9284647e-09
1.3334644e-11
-1.2130337e-10
-1.1275994e-10
2.3809719e-09
-9.0901172e-11
-7.5861638e-11
2.484424e-09
-3.5114219e-11
-7.956994e-11
2.4895014e-09
-1.5301252e-15
-1.5536128e-10
2.5401968e-09
2.8241165e-11
-1.1317932e-10
2.4636332e-09
1.3283055e-11
-1.2810208e-10
2.3100292e-09
-1.1133946e-10
1.8203703e-09
-2.5222949e-11
-8.1680495e-11
-1.7081517e-10
2.1416765e-09
1.5190366e-11
-1.1578491e-10
-1.2474107e-10
2.5895836e-09
-8.5133166e-11
-8.8512845e-11
2.698294e-09
-3.4640412e-11
-9.1828959e-11
2.7092446e-09
-4.6439291e-12
-1.7123337e-10
2.7521365e-09
2.4121217e-11
-1.1741078e-10
2.6720158e-09
1.1873089e-11
-1.376893e-10
2.526142e-09
-1.2725894e-10
2.0453871e-09
-2.8056173e-11
-8.0450456e-11
2.308922e-09
1.6398135e-11
-1.8172418e-10
-1.0704604e-10
2.7469144e-09
-1.3111707e-10
-7.7680537e-11
2.853874e-09
-9.8724724e-11
-3.4043041e-11
2.8679714e-09
-1.0069978e-10
-1.024554e-11
2.9023462e-09
-1.795161e-10
1.7947223e-11
2.8255487e-09
-1.1851668e-10
9.0629227e-12
2.6912173e-09
-1.4146104e-10
2.2252654e-09
-2.9571185e-11
-1.3844396e-10
-2.646868e-11
-1.9375083e-11
2.5122459e-10
3.5668822e-12
-5.3306289e-11
-2.3774089e-11
3.6803856e-10
-3.9446269e-11
-1.6553806e-11
3.3059276e-10
-2.683812e-12
-1.7948234e-11
3.000757e-10
1.9252272e-11
-1.0149698e-10
4.1446265e-10
4.9945499e-12
-2.0035476e-10
5.4745328e-10
1.4834949e-12
-4.4347514e-11
3.3817028e-10
-1.6295572e-11
1.9449336e-10
-3.0354445e-12
-7.0121666e-11
-7.1230059e-11
7.4038826e-10
1.160095e-11
-1.2853531e-10
-7.6831525e-11
1.0032716e-09
-9.5877539e-11
-6.3808189e-11
9.3816631e-10
-9.1618708e-12
-6.5940296e-11
8.6690634e-10
3.3373409e-11
-2.5878237e-10
1.0582036e-09
9.9927342e-12
-3.8271308e-10
1.1230581e-09
-5.3551029e-13
-1.938858e-10
9.8734694e-10
-7.7842888e-11
6.2047704e-10
-1.7503066e-11
-1.0480568e-10
-1.4311509e-10
1.1760364e-09
1.9420283e-11
-1.7835048e-10
-1.4527287e-10
1.52107e-09
-1.3009434e-10
-1.3136363e-10
1.4519591e-09
-1.2682031e-11
-1.3269468e-10
1.3645326e-09
4.2466829e-11
-4.0997046e-10
1.5623609e-09
1.6769538e-11
-5.8514595e-10
1.6475564e-09
-2.1700309e-12
-3.3752484e-10
1.4627661e-09
-1.7486365e-10
1.0329953e-09
-3.4549517e-11
-1.308415e-10
-2.2397425e-10
1.5509437e-09
2.7105492e-11
-2.0784665e-10
-2.1974246e-10
1.9352846e-09
-1.4734657e-10
-2.0727115e-10
1.8735287e-09
-1.4647533e-11
-2.0840848e-10
1.7898611e-09
4.5948637e-11
-5.359607e-10
1.9690949e-09
2.0369392e-11
-8.1242892e-10
2.0962069e-09
-3.1388161e-12
-4.7805036e-10
1.8645272e-09
-2.9010505e-10
1.406596e-09
-5.0748449e-11
-1.4914323e-10
-3.0508659e-10
1.865568e-09
3.4613188e-11
-2.2171889e-10
-2.92759e-10
2.2605059e-09
-1.5298289e-10
-2.8160971e-10
2.212035e-09
-1.7462569e-11
-2.8168105e-10
2.1414039e-09
4.3426701e-11
-6.2603553e-10
2.2887526e-09
2.0743976e-11
-1.0151675e-09
2.4156178e-09
-3.5427969e-12
-6.0473936e-10
2.1872672e-09
-4.0640652e-10
1.7286198e-09
-6.41349e-11
-1.6048466e-10
-3.8009279e-10
2.1223381e-09
4.161746e-11
-2.2394972e-10
-3.5881182e-10
2.5104898e-09
-1.5117046e-10
-3.4786523e-10
2.4779003e-09
-2.1630655e-11
-3.4689379e-10
2.4251743e-09
3.6363025e-11
-6.8013595e-10
2.5363035e-09
2.132183e-11
-1.0934384e-09
2.5569453e-09
-3.2033473e-12
-7.0077704e-10
2.430592e-09
-5.1046482e-10
1.9948689e-09
-7.3643614e-11
-1.6540536e-10
-4.4490684e-10
2.3241489e-09
4.7747106e-11
-2.1777492e-10
-4.1397602e-10
2.6971174e-09
-1.4485872e-10
-4.0222068e-10
2.6797332e-09
-2.6698387e-11
-3.9911285e-10
2.6433033e-09
2.6512932e-11
-7.040993e-10
2.7228886e-09
2.2700225e-11
-1.0612963e-09
2.6436863e-09
-2.2269619e-12
-7.5752969e-10
2.6078219e-09
-5.9409722e-10
2.2054611e-09
-7.8668497e-11
-1.6596755e-10
2.4739527e-09
5.1967918e-11
-4.9593789e-10
-2.0640243e-10
2.8313159e-09
-4.5794262e-10
-1.3614892e-10
2.8237373e-09
-4.4233748e-10
-3.2042772e-11
2.8000063e-09
-4.3525391e-10
1.5365045e-11
2.8554574e-09
-7.046183e-10
2.3616966e-11
2.7312853e-09
-9.7528471e-10
-1.0593132e-12
2.7326277e-09
-7.7426383e-10
2.3604222e-09
-7.870945e-11
-6.5160396e-10
-3.9580849e-11
-8.2353622e-11
3.4761425e-10
2.5544836e-11
-1.1886355e-10
-9.3350648e-11
5.4067192e-10
-7.5010301e-11
-6.1529074e-11
3.482686e-10
-1.4116824e-11
-5.2302169e-11
2.9148441e-10
1.6333154e-11
-5.0210082e-10
8.861135e-10
-2.188532e-12
-6.3256815e-10
1.1985431e-09
-2.0000181e-11
-1.3312656e-10
4.8910851e-10
-6.4402078e-11
2.548806e-10
-1.5985326e-11
-1.0204438e-10
-2.401998e-10
9.9977182e-10
5.0702255e-13
-2.7179397e-10
-3.2100515e-10
1.4006757e-09
-1.867907e-10
-1.7102961e-10
9.6266359e-10
-5.2411733e-11
-1.4681741e-10
8.2704263e-10
1.8119965e-11
-8.9662842e-10
1.3821995e-09
6.8525511e-11
-8.4829506e-10
1.2883795e-09
-7.072867e-12
-3.3491057e-10
1.2647293e-09
-1.9059128e-10
7.9046017e-10
-5.0866778e-11
-1.5138954e-10
-4.5114341e-10
1.5552604e-09
-1.6890868e-11
-3.6932704e-10
-5.9648104e-10
2.0144834e-09
-2.5555858e-10
-2.9779934e-10
1.4649604e-09
-7.7877881e-11
-2.5846343e-10
1.2984979e-09
1.8920323e-11
-1.1026702e-09