/*--------------------------------*- C++ -*----------------------------------*\
  =========                 |
  \\      /  F ield         | OpenFOAM: The Open Source CFD Toolbox
   \\    /   O peration     | Website:  https://openfoam.org
    \\  /    A nd           | Version:  13
     \\/     M anipulation  |
\*---------------------------------------------------------------------------*/
FoamFile
{
    format      ascii;
    class       volVectorField;
    location    "0.01";
    object      U;
}
// * * * * * * * * * * * * * * * * * * * * * * * * * * * * * * * * * * * * * //

dimensions      [0 1 -1 0 0 0 0];

internalField   nonuniform List<vector> 
51200
(
(0.053543161 0.012976818 0.011918731)
(0.058605479 0.0069805674 0.012124508)
(0.057255565 0.0031104416 0.012210498)
(0.056528267 0.00079302817 0.012240108)
(0.056526088 -0.00087378696 0.012240362)
(0.057248247 -0.003179935 0.012210961)
(0.058595124 -0.0070270932 0.01212509)
(0.053531718 -0.012987823 0.011919406)
(0.12319218 0.032029275 0.034029458)
(0.13013743 0.014291849 0.033280981)
(0.12710513 0.0064223817 0.033267055)
(0.12568602 0.001657441 0.033294679)
(0.12568095 -0.001853305 0.033295529)
(0.12708814 -0.0065920503 0.033269275)
(0.13011315 -0.014409921 0.033283923)
(0.1231626 -0.032066607 0.034033084)
(0.16718673 0.041768705 0.046654782)
(0.17250705 0.018059984 0.044409542)
(0.16858549 0.0081723401 0.044192837)
(0.16692051 0.0021221215 0.044278149)
(0.16691416 -0.0023896293 0.044279848)
(0.16856424 -0.0084063514 0.044198204)
(0.1724765 -0.018229453 0.044417482)
(0.16714708 -0.041835317 0.046664589)
(0.19434552 0.045554468 0.052601133)
(0.19692753 0.019785307 0.048892436)
(0.19266484 0.0089827704 0.048469008)
(0.19099455 0.0023474185 0.048620387)
(0.19098798 -0.0026547308 0.048622922)
(0.19264288 -0.009254549 0.048477839)
(0.19689584 -0.019989643 0.048905711)
(0.19430247 -0.045650011 0.052619247)
(0.21033362 0.045998357 0.054432216)
(0.21020157 0.02032557 0.049560547)
(0.20595331 0.0092247775 0.048988868)
(0.20439582 0.0024274342 0.049189343)
(0.20438949 -0.002754955 0.049192585)
(0.20593236 -0.0095178136 0.049000872)
(0.21017125 -0.020553926 0.04957857)
(0.21029114 -0.046120984 0.054459115)
(0.21891011 0.04454329 0.053603039)
(0.21656854 0.020175454 0.047978033)
(0.21255048 0.0091261564 0.047335681)
(0.21115397 0.0024195945 0.04755469)
(0.21114799 -0.0027562607 0.047558534)
(0.21253113 -0.0094310688 0.047350431)
(0.2165404 -0.020421472 0.048000045)
(0.21887004 -0.044690829 0.053638076)
(0.22263613 0.041999858 0.051022332)
(0.21871666 0.01962897 0.045113019)
(0.2150529 0.0088250219 0.044458565)
(0.21382957 0.0023586254 0.044658614)
(0.21382389 -0.0026984311 0.044663043)
(0.21503515 -0.0091367011 0.044475722)
(0.21869072 -0.019888869 0.045138202)
(0.22259899 -0.042170217 0.05106429)
(0.22321691 0.038959299 0.047496032)
(0.21832356 0.018800103 0.041534048)
(0.21508307 0.0084103303 0.040968581)
(0.21402937 0.0022652056 0.0411173)
(0.21402393 -0.002604931 0.041122335)
(0.21506667 -0.0087258708 0.040987742)
(0.21829956 -0.019070844 0.041561173)
(0.2231826 -0.039149402 0.047542476)
(0.036127588 0.0033348461 0.0012099103)
(0.041730613 0.0036860724 0.0013198545)
(0.039968843 0.0021161379 0.0012538566)
(0.038647702 0.00063012102 0.0012347648)
(0.038636591 -0.00076637778 0.0012349163)
(0.03993009 -0.0022330556 0.0012541381)
(0.041674829 -0.0037631936 0.0013202409)
(0.036070832 -0.00335192 0.0012099541)
(0.096112531 0.011194431 0.0074037836)
(0.10680444 0.010389331 0.0077100501)
(0.10226281 0.0057430993 0.0074111679)
(0.099218037 0.0016850343 0.0073352162)
(0.099191378 -0.0020310081 0.0073359126)
(0.10216952 -0.0060427256 0.0074142715)
(0.10666661 -0.010595066 0.0077135149)
(0.095959154 -0.011257428 0.0074080929)
(0.14548895 0.019293206 0.015090037)
(0.15692985 0.015945453 0.015235685)
(0.15029832 0.0086273602 0.014623234)
(0.14623824 0.002518967 0.014492354)
(0.14620353 -0.0030019194 0.014493667)
(0.15017584 -0.0090503402 0.014630826)
(0.15674562 -0.016246899 0.015244741)
(0.14527138 -0.01940787 0.015103391)
(0.18470584 0.026303355 0.022622295)
(0.19408144 0.020146277 0.022293299)
(0.18600015 0.010750987 0.021366157)
(0.18144853 0.0031365179 0.021197558)
(0.18141106 -0.0036990739 0.021199411)
(0.18586705 -0.011249675 0.021379171)
(0.1938785 -0.020514935 0.022309313)
(0.18445455 -0.026469633 0.022648224)
(0.21438061 0.031634714 0.029008736)
(0.22019421 0.023034761 0.028012569)
(0.21123854 0.012181114 0.026821886)
(0.20656066 0.0035588693 0.026632678)
(0.20652333 -0.0041632002 0.026634917)
(0.21110578 -0.012723604 0.026840409)
(0.21998984 -0.023450593 0.028035763)
(0.21411781 -0.031849908 0.029048595)
(0.23547714 0.035234649 0.033862922)
(0.23725733 0.024771691 0.032138502)
(0.22791642 0.013023601 0.030768072)
(0.22334962 0.0038158975 0.03057042)
(0.22331371 -0.0044392477 0.030572972)
(0.22778952 -0.013590333 0.030791764)
(0.2370608 -0.025221791 0.032168511)
(0.23521687 -0.035495143 0.033916363)
(0.24917004 0.037314171 0.037167006)
(0.24716173 0.025535655 0.034743121)
(0.2378263 0.013389194 0.033291747)
(0.2335139 0.0039382461 0.033093082)
(0.23347978 -0.004567892 0.033096206)
(0.23770749 -0.013968737 0.033319954)
(0.24697714 -0.026011672 0.034779315)
(0.24892001 -0.037615948 0.037232581)
(0.25661666 0.038130815 0.039060509)
(0.25154598 0.02546615 0.03597547)
(0.24250156 0.013376489 0.034575243)
(0.23852565 0.0039523286 0.034380366)
(0.23849327 -0.0045816859 0.034384854)
(0.2423913 -0.013961888 0.034606597)
(0.25137455 -0.025961341 0.036016737)
(0.25638018 -0.038467517 0.039134283)
(0.016360123 0.0014803289 7.9292573e-06)
(0.02348159 0.0027984894 9.4354986e-05)
(0.024161006 0.0018401448 9.492976e-05)
(0.023469076 0.00055209547 9.0322331e-05)
(0.023447067 -0.00072393348 9.0606921e-05)
(0.024078448 -0.0019883429 9.5224222e-05)
(0.0233647 -0.0028944812 9.4926378e-05)
(0.016242216 -0.0015020262 8.2903985e-06)
(0.052638504 0.0050701042 0.0019332899)
(0.069412576 0.0079437905 0.0024025305)
(0.070190982 0.005042921 0.0022991222)
(0.068234991 0.0015182502 0.0022136023)
(0.068182463 -0.0019540366 0.0022144402)
(0.069990401 -0.0054220869 0.0023028218)
(0.069120731 -0.008199967 0.0024066026)
(0.052316864 -0.0051509671 0.0019396141)
(0.09026137 0.0095846224 0.005383866)
(0.11235582 0.012645497 0.0062003386)
(0.1123271 0.0077924728 0.0059124722)
(0.10929655 0.0023536481 0.0057050483)
(0.10922823 -0.0029599537 0.0057060901)
(0.11206053 -0.0083259311 0.0059210974)
(0.11196019 -0.013019192 0.0062097441)
(0.089799339 -0.0097303448 0.0054008052)
(0.12699671 0.014646701 0.010007283)
(0.15068569 0.016754747 0.010999251)
(0.14933336 0.010061456 0.010457146)
(0.14547232 0.0030478033 0.010104908)
(0.14539852 -0.0037512526 0.010105721)
(0.14903987 -0.010688011 0.01047155)
(0.15024266 -0.017209347 0.011014869)
(0.12645517 -0.014855115 0.010037763)
(0.16085307 0.019714234 0.01515799)
(0.18327269 0.020121003 0.016072716)
(0.18042087 0.01182547 0.015232102)
(0.17599315 0.0035908343 0.014735028)
(0.17591949 -0.0043437972 0.014735336)
(0.18012478 -0.012504753 0.01525247)
(0.18281917 -0.02063152 0.016094876)
(0.16027823 -0.019980851 0.015203211)
(0.190311 0.024364383 0.02031048)
(0.20959452 0.022647853 0.020891535)
(0.20531374 0.013082274 0.019730823)
(0.20056788 0.0039811797 0.019103211)
(0.20049681 -0.0047558786 0.019102951)
(0.20502829 -0.013790239 0.019757045)
(0.20915184 -0.023198975 0.020920304)
(0.18973382 -0.024684676 0.020370335)
(0.21439373 0.028332891 0.025106035)
(0.2296836 0.02428626 0.025109038)
(0.22417639 0.013854618 0.023629173)
(0.219324 0.0042259098 0.022896912)
(0.21925618 -0.0050076188 0.022896238)
(0.22390775 -0.014577857 0.023661014)
(0.22926264 -0.024868739 0.025144379)
(0.2138326 -0.028702466 0.025179405)
(0.2325928 0.031317636 0.029056849)
(0.24399929 0.025039984 0.028373347)
(0.23746964 0.014191788 0.026634363)
(0.23268224 0.0043393454 0.02584965)
(0.23261742 -0.0051210952 0.025849001)
(0.23721996 -0.014922488 0.026670802)
(0.24360486 -0.025646844 0.028414714)
(0.23205658 -0.031729248 0.029139284)
(0.014434174 0.00055780346 7.6945595e-05)
(0.021177636 0.0014833829 0.00010609095)
(0.022626842 0.0010883466 9.8574662e-05)
(0.022327971 0.0003040436 8.8361758e-05)
(0.02229606 -0.00052882433 8.874102e-05)
(0.022493273 -0.0012842959 9.8760194e-05)
(0.020993101 -0.0016080729 0.00010668251)
(0.014246121 -0.00058600501 7.7082052e-05)
(0.044545265 0.0021612907 0.00075615391)
(0.061188044 0.0045851712 0.0010349874)
(0.064427966 0.0032590663 0.00099187811)
(0.063528575 0.00093998663 0.00090508951)
(0.063453753 -0.0015085684 0.00090519852)
(0.064103148 -0.0037593957 0.00099555669)
(0.060728517 -0.0049184531 0.0010389182)
(0.044035482 -0.002268253 0.00076380075)
(0.075139316 0.0044186238 0.0021899778)
(0.098442736 0.007762635 0.0028327232)
(0.1024724 0.0053635654 0.0027065191)
(0.10096382 0.0015857077 0.002493177)
(0.10086802 -0.0023724515 0.0024917863)
(0.10203968 -0.0060639716 0.00271534)
(0.097819846 -0.008246799 0.0028415206)
(0.074409575 -0.0046118845 0.0022112309)
(0.10557965 0.0072496925 0.0043692334)
(0.1326864 0.010879296 0.0053791439)
(0.1366625 0.0073142673 0.0051130048)
(0.13455333 0.002202105 0.0047404059)
(0.13445104 -0.0031091764 0.0047363635)
(0.13618405 -0.0081319646 0.0051276938)
(0.13198655 -0.011464457 0.0053928911)
(0.10472464 -0.007524922 0.0044071546)
(0.13508675 0.010484573 0.0071767747)
(0.16354805 0.013767092 0.0084497581)
(0.1668229 0.0090223696 0.0079834893)
(0.16415572 0.0027498198 0.0074390401)
(0.16405414 -0.0037151912 0.0074317165)
(0.16633736 -0.0099038191 0.0080040069)
(0.16282671 -0.014419623 0.0084679505)
(0.13417653 -0.010833802 0.007231722)
(0.16275976 0.013904314 0.010427037)
(0.19063862 0.016262325 0.011780104)
(0.19277004 0.010419917 0.011059339)
(0.18962265 0.0032006201 0.010348589)
(0.18952426 -0.0041896897 0.010337903)
(0.19229881 -0.011334445 0.011085401)
(0.18992768 -0.016962456 0.011802197)
(0.1618406 -0.014319879 0.010497715)
(0.18767649 0.017266736 0.013893159)
(0.21368664 0.018226226 0.015092938)
(0.21440075 0.0114691 0.014080989)
(0.21087718 0.0035395263 0.013227366)
(0.21078202 -0.0045353067 0.013213715)
(0.21395431 -0.012400619 0.014112295)
(0.21300275 -0.018962942 0.015118593)
(0.18677596 -0.017741839 0.01397722)
(0.209014 0.020252089 0.01719715)
(0.23266081 0.019583715 0.018128467)
(0.23175263 0.012165596 0.016812635)
(0.22797587 0.0037639422 0.015868381)
(0.22788295 -0.0047594664 0.015852927)
(0.23133514 -0.013105217 0.01684804)
(0.23201224 -0.020349465 0.018157354)
(0.20814591 -0.02077678 0.017288285)
(0.011804007 0.00028773907 1.3707263e-05)
(0.01840431 0.00081493653 4.231936e-05)
(0.020571684 0.00055990066 4.2079794e-05)
(0.02072 9.2258241e-05 3.3922748e-05)
(0.020682298 -0.00039682171 3.4228354e-05)
(0.020371398 -0.00083245175 4.1956433e-05)
(0.018127033 -0.00098688819 4.3015373e-05)
(0.011511028 -0.00032925487 1.3852397e-05)
(0.037239931 0.0011301259 0.00040048222)
(0.054001359 0.0025957629 0.00061794001)
(0.059266533 0.0018137189 0.00059404141)
(0.059521865 0.00038451548 0.00051239716)
(0.059436694 -0.0011499109 0.00051085236)
(0.058777858 -0.0025063995 0.00059905312)
(0.053314163 -0.0030539569 0.00062377769)
(0.03644976 -0.001286179 0.00041295852)
(0.063659999 0.002355306 0.0012061866)
(0.087780667 0.0045319297 0.001694157)
(0.095023525 0.0031755702 0.0016161871)
(0.09521384 0.00077607232 0.0014161101)
(0.095109763 -0.001825672 0.0014100239)
(0.094373652 -0.0041385066 0.0016292629)
(0.086856096 -0.0051936642 0.001707326)
(0.062536946 -0.0026354483 0.0012406551)
(0.090454039 0.0039595501 0.0024435033)
(0.11946571 0.0065691489 0.0032254303)
(0.12770547 0.0045770944 0.0030545425)
(0.12767979 0.0012235581 0.0027057296)
(0.12757377 -0.0024212167 0.0026928432)
(0.12698943 -0.0056915649 0.0030771534)
(0.11843569 -0.0073625221 0.0032457975)
(0.08915003 -0.0043556176 0.0025045837)
(0.11702718 0.0058894829 0.0040741202)
(0.14881528 0.0086116972 0.0051113814)
(0.15721531 0.0059336716 0.0048037444)
(0.15685331 0.0016776736 0.0042933181)
(0.15675158 -0.0029387786 0.0042724448)
(0.15649126 -0.0071234506 0.004835839)
(0.1477618 -0.0094880382 0.0051375563)
(0.11565258 -0.0063873098 0.0041616028)
(0.14276571 0.0080599189 0.0060372369)
(0.17561269 0.010543522 0.0072326755)
(0.18347674 0.0071670513 0.0067432434)
(0.18269676 0.0020980072 0.006073834)
(0.18259923 -0.0033771324 0.0060448383)
(0.18277569 -0.0083893055 0.0067842039)
(0.17457991 -0.011474333 0.0072630592)
(0.14139056 -0.00864562 0.0061480879)
(0.16703725 0.010345545 0.0082350176)
(0.19969971 0.012245534 0.0094420304)
(0.20644364 0.0082176396 0.0087338886)
(0.20520643 0.002456739 0.0079243461)
(0.20511022 -0.0037332763 0.0078880034)
(0.20577962 -0.0094507573 0.0087829984)
(0.19870802 -0.01321538 0.0094754333)
(0.16570033 -0.011006677 0.0083644745)
(0.189221 0.012538168 0.010452245)
(0.22104174 0.013635591 0.011604388)
(0.22611903 0.0090517131 0.010649005)
(0.22443233 0.0027387821 0.0097434354)
(0.22433404 -0.0040059298 0.0097021247)
(0.22549664 -0.010284187 0.010703742)
(0.22009938 -0.014634664 0.011639773)
(0.18793901 -0.013258171 0.010589687)
(0.010737589 0.00012127881 1.3595412e-05)
(0.017058039 0.00030445165 3.0975844e-05)
(0.0195093 8.3245079e-05 3.0271647e-05)
(0.019913223 -0.00011575407 2.36131e-05)
(0.019874816 -0.00029842251 2.3900772e-05)
(0.0192069 -0.00047761906 3.1300121e-05)
(0.016643154 -0.00055710063 3.300186e-05)
(0.010285281 -0.00018584059 1.4575019e-05)
(0.033905781 0.00050683018 0.00021619746)
(0.050186429 0.0010977514 0.00037326954)
(0.056394202 0.00050673468 0.0003618992)
(0.057380388 -0.00016637503 0.00029897161)
(0.057304497 -0.00087095101 0.00029305531)
(0.055657303 -0.0015060095 0.00036934636)
(0.049167637 -0.0017655776 0.00038258907)
(0.032696211 -0.00074760699 0.00023660328)
(0.057996008 0.0011115845 0.00064999607)
(0.081786383 0.0020925193 0.0010196018)
(0.09069181 0.0011746619 0.00097841611)
(0.092048261 -3.5242554e-05 0.00082333686)
(0.091971119 -0.0013746302 0.00080490721)
(0.089715394 -0.0025552742 0.00099530958)
(0.080428887 -0.0030498636 0.0010372851)
(0.056289837 -0.0015408256 0.00070354498)
(0.082531594 0.0019545787 0.0013332848)
(0.11168913 0.0032625283 0.0019452101)
(0.1223317 0.0020230675 0.0018485868)
(0.12385001 0.00022626396 0.0015756886)
(0.1237882 -0.0018161806 0.0015405216)
(0.12126184 -0.0036065002 0.0018753916)
(0.11019324 -0.0043999414 0.0019690704)
(0.08056723 -0.0025570686 0.0014257805)
(0.10708028 0.0030260871 0.0022585597)
(0.13977278 0.0045482996 0.003097013)
(0.15128658 0.0029688837 0.0029144496)
(0.15276793 0.00055804095 0.0025122058)
(0.15272191 -0.0022101339 0.0024584512)
(0.15021232 -0.0046398987 0.0029508974)
(0.13826066 -0.0057905811 0.0031239099)
(0.10502992 -0.0037764962 0.0023884183)
(0.13120769 0.0042954348 0.0034035136)
(0.16593722 0.0058734189 0.0044123953)
(0.1775426 0.0039329685 0.0041114473)
(0.17880961 0.0009101822 0.003581)
(0.17877169 -0.0025634286 0.0035088502)
(0.17651027 -0.0056269262 0.0041574906)
(0.16447195 -0.007175628 0.0044396794)
(0.12917932 -0.0051680722 0.0035650617)
(0.15446664 0.005705802 0.0047246141)
(0.19012065 0.0071544756 0.0058141969)
(0.20109705 0.0048495406 0.0053657245)
(0.20200571 0.0012463321 0.0047208624)
(0.20196593 -0.0028756419 0.0046322933)
(0.20012613 -0.0065345029 0.0054217174)
(0.18872821 -0.0084919181 0.0058404932)
(0.15251812 -0.0066769232 0.0049099573)
(0.17640347 0.0071475974 0.0061175912)
(0.21233793 0.0083257765 0.007240522)
(0.22196012 0.0056714623 0.0066151376)
(0.22241441 0.0015429685 0.0058877781)
(0.22236388 -0.0031430668 0.0057881422)
(0.22105526 -0.0073313748 0.0066791522)
(0.21102546 -0.0096834633 0.0072659767)
(0.1745572 -0.0081879705 0.006311162)
(0.010216145 9.9584518e-06 5.8785337e-06)
(0.016325067 -0.00012529948 1.9138997e-05)
(0.018825918 -0.00039208256 1.9123904e-05)
(0.019302929 -0.00034326691 1.3307745e-05)
(0.019304363 -0.00025183469 1.3474466e-05)
(0.018458977 -0.00021011606 1.5733247e-05)
(0.015741344 -0.0002591214 1.9517438e-05)
(0.0095431876 -0.00011069645 5.5531484e-06)
(0.032336982 6.9792257e-05 9.2200297e-05)
(0.04815714 -0.00016126235 0.00020692237)
(0.054623249 -0.00078928689 0.00020951553)
(0.055868484 -0.00076456777 0.00016470179)
(0.055908865 -0.0007216875 0.00015375203)
(0.053710186 -0.00073622083 0.00021236719)
(0.046739586 -0.00084894987 0.0002177306)
(0.030546709 -0.00044589579 0.00012164905)
(0.055310043 0.00022964618 0.00028402914)
(0.078571712 4.5953242e-05 0.00055671712)
(0.088045481 -0.0007990776 0.00055312275)
(0.089892489 -0.00090861856 0.00044575377)
(0.089999348 -0.0011002428 0.00041139596)
(0.086835122 -0.0013064771 0.00056920365)
(0.076711089 -0.0014891865 0.00058057812)
(0.052805098 -0.00089990812 0.00036496735)
(0.078688239 0.00052727922 0.00060238698)
(0.10743544 0.00048531272 0.0010604107)
(0.11903622 -0.00049195844 0.0010347236)
(0.12130244 -0.00084173003 0.00084874568)
(0.12147327 -0.0014070278 0.00078214193)
(0.11771694 -0.0019169483 0.0010696238)
(0.10542062 -0.0021939576 0.0010960995)
(0.075833878 -0.0014672022 0.00074502293)
(0.10211441 0.0009776018 0.0010544273)
(0.13469529 0.0011150847 0.0016941908)
(0.14760742 3.9170609e-05 0.0016260112)
(0.15009292 -0.00064200704 0.0013539111)
(0.15030415 -0.001674312 0.0012514067)
(0.14628999 -0.0025691671 0.0016820208)
(0.13269525 -0.0029725313 0.0017385925)
(0.099171053 -0.0021459219 0.0012578088)
(0.1252494 0.0015791445 0.0016377063)
(0.16032395 0.0018806021 0.0024291892)
(0.17378375 0.00070671231 0.0022959017)
(0.17628433 -0.00037299364 0.0019387383)
(0.17650533 -0.0019225093 0.0018010069)
(0.17252026 -0.0032525222 0.0023743981)
(0.15841834 -0.0038152037 0.0024796899)
(0.12237603 -0.0029334641 0.0018950181)
(0.14774862 0.0023156232 0.0023393071)
(0.18432174 0.0027216174 0.0032296944)
(0.1975887 0.0014363779 0.0030075515)
(0.19991284 -8.043306e-05 0.002576867)
(0.20011534 -0.0021586944 0.0024075138)
(0.19639474 -0.0039440419 0.0031109528)
(0.18253457 -0.0046919625 0.0032848837)
(0.14502518 -0.0038151122 0.0026394984)
(0.16925628 0.0031416954 0.0031215957)
(0.20674063 0.003585477 0.0040709173)
(0.21903874 0.0021713456 0.0037340396)
(0.22102919 0.00020507897 0.0032509909)
(0.22119152 -0.0023814301 0.00305956)
(0.21791066 -0.0046126045 0.0038582059)
(0.20506852 -0.0055657225 0.0041296344)
(0.16670697 -0.0047358188 0.0034402597)
(0.010251993 -0.00011955802 1.4820149e-06)
(0.016238575 -0.00063064022 7.2923023e-06)
(0.018417415 -0.00098204958 1.2173238e-05)
(0.018724254 -0.00060155705 8.6384982e-06)
(0.018781981 -0.00014534743 9.4188414e-06)
(0.017798846 4.9583248e-05 1.8058974e-05)
(0.015281619 -3.6209328e-05 1.2690974e-05)
(0.0091535129 -5.2343173e-05 7.9722097e-06)
(0.032411745 -0.00040927584 -1.3677868e-05)
(0.047842946 -0.0015748335 6.1054072e-05)
(0.053617168 -0.0023471416 8.2129779e-05)
(0.05451501 -0.0014297758 5.684666e-05)
(0.054745851 -0.00045449363 1.9776371e-05)
(0.052102309 -7.1478156e-06 4.9417643e-05)
(0.045565824 -0.00013379299 6.6672783e-05)
(0.029546756 -0.00023447918 3.3109809e-05)
(0.055249807 -0.00069746274 -2.9857157e-05)
(0.077888793 -0.0021771614 0.00015970945)
(0.086536591 -0.0031088048 0.00019125804)
(0.088019429 -0.0018590956 0.00013189156)
(0.088446969 -0.00068154975 2.4562086e-05)
(0.084549473 -0.00012818225 9.9367541e-05)
(0.074936171 -0.0002353786 0.00014559421)
(0.051284505 -0.00044579903 7.4092288e-05)
(0.078314133 -0.00092193239 -1.8310811e-05)
(0.10628309 -0.0024499963 0.0003107287)
(0.11711385 -0.0033669335 0.0003383696)
(0.11912031 -0.001984361 0.00023680913)
(0.11970978 -0.00084711948 3.9159377e-05)
(0.11497008 -0.0003160563 0.00017285053)
(0.10311994 -0.00038060087 0.00025556902)
(0.073833624 -0.00067270705 0.00014015161)
(0.10129385 -0.0010435694 4.2421893e-05)
(0.13304839 -0.0024366635 0.0005147412)
(0.14539166 -0.0032489169 0.00052102576)
(0.14779837 -0.0019141476 0.00037377625)
(0.14848069 -0.00099531122 8.3793344e-05)
(0.1432736 -0.00059262208 0.00028751114)
(0.12994378 -0.00060999717 0.00040452195)
(0.096710115 -0.00092587304 0.00024312318)
(0.12391465 -0.0010393795 0.00016544153)
(0.15823347 -0.0021893818 0.00076747035)
(0.17142811 -0.0028706905 0.00073538708)
(0.17406791 -0.0017331815 0.00054356218)
(0.17476793 -0.0011557351 0.00017219672)
(0.16941916 -0.00096563339 0.00045627463)
(0.15531187 -0.00094478358 0.00059876282)
(0.11947783 -0.0012241188 0.00039379388)
(0.1459038 -0.0008949906 0.00035965097)
(0.18190147 -0.001763929 0.0010593953)
(0.19527122 -0.0023278571 0.0009734828)
(0.19795765 -0.0014999697 0.00074348157)
(0.19861128 -0.0013395115 0.00030827993)
(0.19339542 -0.0014232508 0.00067959541)
(0.17919857 -0.0013814324 0.00083954672)
(0.1417396 -0.0015823074 0.0005997672)
(0.16697606 -0.00060518756 0.00063964081)
(0.20414761 -0.0012126199 0.0013863404)
(0.21694992 -0.0016936939 0.0012331206)
(0.21950561 -0.0012524818 0.00097682167)
(0.22006783 -0.0015441539 0.0005009091)
(0.21519971 -0.0019380516 0.00095616494)
(0.20165559 -0.0018957947 0.0011334385)
(0.16312478 -0.0019922826 0.00086438013)
(0.010871483 -0.00025908786 -4.1325891e-06)
(0.016699087 -0.0014257241 8.9939874e-06)
(0.018269185 -0.0020085605 -6.9900017e-07)
(0.018154333 -0.0010104085 -1.2683686e-06)
(0.01865737 -0.000144492 -1.7930709e-05)
(0.018478099 0.00046011195 -5.66513e-05)
(0.015510615 0.00039563322 -1.1019533e-05)
(0.0093921662 -2.7970691e-05 -1.1543433e-05)
(0.034194458 -0.00098157352 -0.00014962553)
(0.049056041 -0.0037153921 -0.00011507116)
(0.053394647 -0.004927383 -5.4873261e-05)
(0.053276077 -0.0024355032 -6.0674604e-05)
(0.054606731 -0.00045437146 -0.0001983894)
(0.053539251 0.0010288937 -0.00024032809)
(0.04638616 0.0011151959 -0.00017252445)
(0.030371286 -6.7121487e-05 -9.9205147e-05)
(0.057877262 -0.0018412285 -0.00042762992)
(0.079506816 -0.0054543384 -0.00033863565)
(0.086209687 -0.0067915016 -0.0001795577)
(0.086362454 -0.0032461747 -0.00019325246)
(0.088320436 -0.00063484427 -0.00050177062)
(0.086311999 0.0014158378 -0.00046710626)
(0.076192281 0.0018051829 -0.00045250201)
(0.052669022 3.0557816e-08 -0.00028646626)
(0.081433158 -0.0027267988 -0.00079158746)
(0.10798238 -0.0066700921 -0.00062300514)
(0.11661087 -0.0077866546 -0.0003562296)
(0.11720657 -0.003601137 -0.00037961188)
(0.11953011 -0.00071970829 -0.00087766535)
(0.11670818 0.0016458631 -0.00072989157)
(0.1045943 0.0023958098 -0.00077980682)
(0.075654756 0.00017590292 -0.00054748728)
(0.10458745 -0.0035580025 -0.001190441)
(0.13458614 -0.0074182449 -0.00091860831)
(0.1446719 -0.0081294408 -0.00056156263)
(0.14575256 -0.0036689631 -0.00059462971)
(0.14817826 -0.00077939714 -0.0012711881)
(0.1446475 0.0017062371 -0.00099998377)
(0.1313996 0.0028103867 -0.0010970924)
(0.098781784 0.00042196683 -0.00084734833)
(0.1271253 -0.0042760271 -0.0015838348)
(0.15945522 -0.0077619063 -0.0011937801)
(0.17049729 -0.008008942 -0.00077604183)
(0.17199936 -0.0035740522 -0.00081585682)
(0.1743149 -0.00086074798 -0.001642962)
(0.17019807 0.0015873393 -0.0012276496)
(0.15652915 0.0030077875 -0.0013770784)
(0.12158827 0.00068078327 -0.0011514582)
(0.14884166 -0.0048330223 -0.0019392307)
(0.18273117 -0.0077646938 -0.0014302258)
(0.19417505 -0.0075762933 -0.00098613858)
(0.19596507 -0.0033973988 -0.0010266961)
(0.19802948 -0.00098146884 -0.0019660315)
(0.19351267 0.0013026003 -0.0013857557)
(0.1800071 0.0029798403 -0.0016020036)
(0.14368526 0.00089678578 -0.0014285846)
(0.16951492 -0.0051707784 -0.0021872948)
(0.20456638 -0.007486526 -0.001605771)
(0.2157602 -0.0069467326 -0.0011750824)
(0.21767748 -0.0031875341 -0.0012119465)
(0.21941735 -0.0011417193 -0.0022102736)
(0.21472772 0.00089236925 -0.0014870505)
(0.20194449 0.0027507069 -0.0017626259)
(0.16473292 0.001034418 -0.0016412271)
(0.012530493 -0.00059393771 -2.2727972e-05)
(0.019056136 -0.0027422494 -5.6849867e-05)
(0.018060695 -0.0035360517 -8.9187575e-06)
(0.017202813 -0.0013218508 -1.3216638e-05)
(0.018405717 0.0010477989 -0.00016257427)
(0.017798894 0.0010663425 -0.00037479879)
(0.016577098 -3.1672426e-05 6.8871402e-07)
(0.0096546574 0.00013176861 1.4152149e-05)
(0.038874879 -0.0021656279 -0.00038177878)
(0.054668654 -0.0070949652 -0.00043537121)
(0.053131851 -0.0087166555 -0.00032717441)
(0.051215395 -0.0032321124 -0.00034781946)
(0.054027356 0.0021649478 -0.0017463062)
(0.05116595 0.0026891497 -0.0029830657)
(0.049839734 0.00078431121 -0.00099996204)
(0.031860241 0.00013560915 -0.00035995238)
(0.064903296 -0.0040041625 -0.0010287108)
(0.08695367 -0.01046875 -0.0010731325)
(0.085823211 -0.012135163 -0.00092743757)
(0.083622514 -0.0043445436 -0.00094527362)
(0.087527452 0.0028534513 -0.0033557669)
(0.082785404 0.0039264068 -0.0047736914)
(0.079832696 0.0021259637 -0.0025982264)
(0.055562768 0.00039436698 -0.0011822236)
(0.090061984 -0.0059404494 -0.0018859826)
(0.11609916 -0.012962022 -0.0018810926)
(0.11595906 -0.014125962 -0.0017349864)
(0.11402991 -0.0048967251 -0.0017461371)
(0.11853497 0.0031682493 -0.0049560671)
(0.11304929 0.0050565099 -0.0072396699)
(0.10810123 0.0035086684 -0.0042452261)
(0.079772217 0.0010072905 -0.0023724976)
(0.11411946 -0.007842294 -0.0028664474)
(0.14251583 -0.01469352 -0.0027796478)
(0.14365065 -0.015053443 -0.0026469159)
(0.14224354 -0.0051298656 -0.0026522363)
(0.14694278 0.0030472885 -0.0063660339)
(0.14061111 0.0059833923 -0.010118875)
(0.13450583 0.0048827409 -0.0059092055)
(0.10376998 0.0018709221 -0.0037705766)
(0.13694774 -0.0096065207 -0.0039037063)
(0.16662716 -0.01577115 -0.003708323)
(0.16908193 -0.01522885 -0.00358338)
(0.16832182 -0.0052045216 -0.0035787131)
(0.17281321 0.0025651781 -0.0074822297)
(0.1656171 0.0065109503 -0.012211663)
(0.15901747 0.0061900806 -0.0074747524)
(0.12703044 0.002886929 -0.0052304842)
(0.15844901 -0.011142141 -0.004942212)
(0.18880879 -0.016290782 -0.0046196169)
(0.192403 -0.014898438 -0.0044890649)
(0.19223928 -0.0052092126 -0.0044660574)
(0.19624613 0.0018869739 -0.0083057657)
(0.18845386 0.0065187684 -0.01302831)
(0.18172485 0.0072918325 -0.0087747779)
(0.14917778 0.0039720788 -0.0066302371)
(0.17850615 -0.012320892 -0.0058558893)
(0.20938323 -0.016343965 -0.0054689099)
(0.21370607 -0.014243799 -0.0052983679)
(0.21398344 -0.005184531 -0.0052436738)
(0.217347 0.0011469394 -0.0088302573)
(0.20943586 0.0060679993 -0.012833203)
(0.20279884 0.008039056 -0.0097065454)
(0.16992505 0.0050071706 -0.0078167138)
(0.015425361 -0.00046273144 -0.00011861594)
(0.020979087 -0.0054857514 -3.9909287e-05)
(0.019086832 -0.007678265 -0.00017555687)
(0.016349626 -0.0022664187 -9.2858453e-05)
(0.033030159 0.00050353272 -0.0014638303)
(0.057770218 0.0021040935 -0.0027701339)
(0.02263888 -0.00062947421 -0.00028511764)
(0.012766348 -0.0012673593 -0.00016160757)
(0.046728273 -0.0022966045 -0.0014635473)
(0.059962601 -0.014192599 -0.0018685225)
(0.055785095 -0.018494622 -0.0010276365)
(0.04886086 -0.0060161969 -0.00091035029)
(0.069768254 -0.00054942539 -0.007280593)
(0.081708051 0.0070947889 -0.0077439292)
(0.064663274 0.0046630172 -0.0021911198)
(0.041050444 -0.0024910737 -0.0010986682)
(0.076454459 -0.0047568603 -0.0033427483)
(0.094632574 -0.02122723 -0.004535776)
(0.089219908 -0.025390268 -0.0022776967)
(0.080232375 -0.0083449298 -0.0019682051)
(0.10077551 -0.0011882065 -0.010322352)
(0.10269375 0.0081534744 -0.0069049938)
(0.098137759 0.010258801 -0.0046665343)
(0.069959056 -0.00072410472 -0.0026042012)
(0.1041483 -0.0079390381 -0.0058247855)
(0.12521009 -0.026720889 -0.007573126)
(0.11919723 -0.029279756 -0.0037255086)
(0.11011311 -0.0095289645 -0.0032812187)
(0.12854064 -0.00099974896 -0.012171829)
(0.16236694 0.00965474 -0.0091538404)
(0.12699976 0.014164858 -0.0075882765)
(0.09787272 0.0016858596 -0.0046670369)
(0.12973329 -0.011576985 -0.0086205073)
(0.15214787 -0.030701843 -0.010395288)
(0.14606118 -0.030981794 -0.0051943755)
(0.13798524 -0.0099603702 -0.0048189676)
(0.15289678 -0.0014709648 -0.013528262)
(0.18302934 0.011620555 -0.016056052)
(0.15183972 0.017565902 -0.01048565)
(0.12371543 0.0050058248 -0.0071616852)
(0.15320852 -0.015321224 -0.011420203)
(0.17597191 -0.033228105 -0.012713546)
(0.17023627 -0.031047944 -0.0065658766)
(0.16360241 -0.010017131 -0.0064746122)
(0.17457022 -0.0022708005 -0.014731209)
(0.18681526 0.012582834 -0.019988527)
(0.17362456 0.020623849 -0.012993266)
(0.14706648 0.0085076871 -0.0097746743)
(0.1745948 -0.018876883 -0.013956315)
(0.19722501 -0.034449287 -0.014451306)
(0.19209328 -0.030044353 -0.0077923571)
(0.18687666 -0.0099082956 -0.0080925175)
(0.19418461 -0.002977518 -0.015940429)
(0.19011391 0.012415267 -0.020345474)
(0.19338603 0.022988542 -0.014927377)
(0.16809748 0.01178508 -0.01222058)
(0.19389514 -0.021875202 -0.015906823)
(0.21639724 -0.034495495 -0.015565659)
(0.21189127 -0.028464491 -0.008883569)
(0.20787573 -0.0098136365 -0.0095389987)
(0.21257243 -0.0033960557 -0.016894097)
(0.19913582 0.011599281 -0.018686688)
(0.21028455 0.024231135 -0.016226822)
(0.18678936 0.014570422 -0.014241649)
(0.023659513 -0.0018394865 -8.0651026e-05)
(0.04546719 -0.0084429581 -0.00075128466)
(0.016709846 -0.011751101 -0.00097420858)
(0.016183826 0.0033302642 -0.0012989032)
(0.076523724 0.051509078 -0.0034428833)
(0.049899023 -0.036750851 0.0094961942)
(0.030913157 -0.097891241 -0.0037710418)
(0.01400759 -0.0092662074 -0.0010715228)
(0.072073922 -0.0068897687 -0.0018870312)
(0.11108269 -0.021361418 -0.0032844414)
(0.050303744 -0.030576333 -0.0085601681)
(0.04713468 -0.0086893229 -0.0045800852)
(0.087085307 0.00058445488 -0.01033438)
(0.062467493 -0.057861744 0.031237805)
(0.08109626 -0.073045016 -0.010110593)
(0.048100617 -0.026273017 -0.00794637)
(0.1138365 -0.012392721 -0.0044679731)
(0.15651261 -0.031581542 -0.0065415251)
(0.081906602 -0.043845647 -0.014406762)
(0.076447562 -0.018646733 -0.0021295385)
(0.093282543 -0.037778228 -0.010022291)
(0.079341762 -0.067887339 0.031303461)
(0.11851836 -0.050302707 -0.0096616371)
(0.08396186 -0.032612113 -0.01256097)
(0.14895472 -0.01836624 -0.0076625157)
(0.1859561 -0.039970576 -0.010443723)
(0.10994141 -0.05187027 -0.01857756)
(0.10458324 -0.024389601 -0.00053945455)
(0.1102334 -0.010345308 -0.0094048917)
(0.14559706 -0.060067551 0.034171986)
(0.14731886 -0.075501995 -0.010807836)
(0.11825211 -0.034741948 -0.017440033)