/*--------------------------------*- C++ -*----------------------------------*\
  =========                 |
  \\      /  F ield         | OpenFOAM: The Open Source CFD Toolbox
   \\    /   O peration     | Website:  https://openfoam.org
    \\  /    A nd           | Version:  13
     \\/     M anipulation  |
\*---------------------------------------------------------------------------*/
FoamFile
{
    format      ascii;
    class       volScalarField;
    location    "0.06";
    object      alpha.water;
}
// * * * * * * * * * * * * * * * * * * * * * * * * * * * * * * * * * * * * * //

dimensions      [];

internalField   nonuniform List<scalar> 
51200
(
0
0
0
0
0
0
0
0
0
0
0
0
0
0
0
0
0
0
0
0
0
0
0
0
0
0
0
0
0
0
0
0
0
0
0
0
0
0
0
0
0
0
0
0
0
0
0
0
0
0
0
0
0
0
0
0
0
0
0
0
0
0
0
0
0
0
0
0
0
0
0
0
0
0
0
0
0
0
0
0
0
0
0
0
0
0
0
0
0
0
0
0
0
0
0
0
0
0
0
0
0
0
0
0
0
0
0
0
0
0
0
0
0
0
0
0
0
0
0
0
0
0
0
0
0
0
0
0
0
0
0
0
0
0
0
0
0
0
0
0
0
0
0
0
0
0
0
0
0
0
0
0
0
0
0
0
0
0
0
0
0
0
0
0
0
0
0
0
0
0
0
0
0
0
0
0
0
0
0
0
0
0
0
0
0
0
0
0
0
0
0
0
0
0
0
0
0
0
0
0
0
0
0
0
0
0
0
0
0
0
0
0
0
0
0
0
0
0
0
0
0
0
0
0
0
0
0
0
0
0
0
0
0
0
0
0
0
0
0
0
0
0
0
0
0
0
0
0
0
0
0
0
0
0
0
0
0
0
0
0
0
0
0
0
0
0
0
0
0
0
0
0
0
0
0
0
0
0
0
0
0
0
0
0
0
0
0
0
0
0
0
0
0
0
0
0
0
0
0
0
0
0
0
0
0
0
0
0
0
0
0
0
0
0
0
0
0
0
0
0
0
0
0
0
0
0
0
0
0
0
0
0
0
0
0
0
0
0
0
0
0
0
0
0
0
0
0
0
0
0
0
0
0
0
0
0
0
0
0
0
0
0
0
0
0
0
0
0
0
0
0
0
0
0
0
0
0
0
0
0
0
0
0
0
0
0
0
0
0
0
0
0
0
0
0
0
0
0
0
0
0
0
0
0
0
0
0
0
0
0
0
0
0
0
0
0
0
0
0
0
0
0
0
0
0
0
0
0
0
0
0
0
0
0
0
0
0
0
0
0
0
0
0
0
0
0
0
0
0
0
0
0
0
0
0
0
0
0
0
0
0
0
0
0
0
0
0
0
0
0
0
0
0
0
0
0
0
0
0
0
0
0
0
0
0
0
0
0
0
0
0
0
0
0
0
0
0
0
0
0
0
0
0
0
0
0
0
0
0
0
0
0
4.6547712e-27
1.4319023e-61
-1.9726407e-53
8.9100609e-86
9.7280504e-79
-2.4610873e-54
4.6999204e-40
4.0629371e-28
-2.5855796e-48
3.1226038e-59
6.9561006e-46
1.8371648e-62
9.311475e-47
3.364154e-43
4.3081163e-49
1.620668e-27
1.7341792e-59
1.5572857e-45
1.7635668e-61
1.0749641e-55
3.0917998e-47
1.205946e-43
2.0975343e-37
2.5315065e-29
-1.9264069e-56
5.9466807e-29
7.8571479e-30
1.4093016e-32
4.7556427e-45
2.0911176e-45
4.1939638e-36
4.5558239e-33
-4.7031419e-60
7.2797953e-30
7.8486754e-31
2.6213837e-32
3.7699231e-37
3.6470789e-43
9.6042243e-53
2.2461231e-46
-1.148228e-63
2.3409832e-31
1.5996605e-32
1.6709602e-33
5.1796415e-38
-1.8371099e-62
3.3150388e-53
3.1296001e-50
6.2386027e-56
3.9019428e-34
1.0630518e-34
8.4810082e-36
1.8800134e-39
2.061935e-48
4.8343918e-58
6.0493132e-50
1.646861e-54
1.7772632e-41
9.8763556e-54
6.1305017e-55
7.5023022e-41
-2.3999597e-70
-1.7903644e-65
6.3893022e-50
1.1475174e-17
4.7733332e-17
5.4788241e-14
1.8160195e-12
4.7329888e-14
1.4500818e-41
1.4484658e-41
8.5855398e-37
2.2129682e-32
6.0141625e-19
3.133308e-16
7.4670982e-15
2.5122109e-16
1.4484658e-41
7.6571445e-40
7.0416391e-35
3.0570845e-16
1.5708964e-18
1.7447205e-25
1.9416301e-28
1.9159066e-31
1.4176227e-40
2.3109697e-36
2.3610777e-36
1.8150121e-17
1.4328412e-19
2.7302132e-25
9.0268227e-33
1.3425774e-30
3.6160733e-26
2.2198811e-36
7.2545551e-22
3.1549382e-20
8.1549918e-22
7.0870172e-26
2.615137e-32
2.4269319e-37
1.5436691e-26
2.6512426e-23
3.2782171e-21
7.4377036e-30
2.3931599e-31
2.4734692e-27
5.7553697e-30
1.1301013e-30
2.4772607e-27
4.0354453e-24
3.4395102e-22
6.8935734e-36
5.2329251e-34
1.2965699e-30
3.6254802e-31
6.1902424e-32
1.7090489e-28
6.8171205e-26
2.2785225e-24
6.2326172e-39
3.712087e-37
8.1537294e-38
1.40629e-33
5.5599347e-33
1.1624238e-30
2.7184876e-31
1.3140754e-30
3.8737628e-18
3.1115006e-15
2.0087369e-12
8.1149243e-11
1.0725679e-12
5.2103463e-10
2.1297027e-07
2.6811563e-09
2.2149908e-13
3.3868471e-16
1.1294293e-14
2.5675472e-13
4.6337664e-15
2.8875828e-12
2.3707248e-10
1.7654231e-28
1.9514205e-15
1.0504621e-17
8.0470815e-17
3.8949116e-18
2.0916731e-18
1.2851569e-15
-7.4871583e-31
2.3215017e-24
6.7271715e-17
3.591643e-19
3.300823e-19
1.4767598e-20
3.1055492e-22
1.8468736e-20
7.0594541e-27
1.3274662e-21
1.3459272e-19
1.453539e-21
1.5654757e-26
3.442444e-24
1.3495694e-28
8.4471814e-27
1.3237427e-21
3.7844191e-20
7.079901e-23
7.1059492e-28
2.3560345e-29
1.2048545e-29
9.2799949e-29
4.1991462e-28
3.8207965e-23
3.6645636e-21
1.3322975e-24
5.4357148e-28
1.5381166e-32
1.7237309e-30
4.432419e-30
3.8325317e-28
2.7650446e-25
2.3577659e-23
4.5341819e-27
3.728906e-29
1.3278784e-34
6.8390909e-32
1.1034066e-31
4.0119638e-29
5.4912946e-31
1.7819346e-29
3.8737795e-18
3.8737628e-18
1.0323475e-11
1.3281365e-10
7.9080212e-14
7.9518874e-14
4.8467655e-07
4.5706172e-09
4.3067971e-11
4.8413086e-18
9.5928474e-14
2.3115137e-12
7.1318262e-14
9.3877578e-13
3.0736842e-09
8.2010052e-10
8.9773356e-13
1.7566715e-16
2.187184e-15
2.6325218e-14
6.4920906e-16
5.2820517e-19
4.7807286e-17
1.248178e-11
4.1741496e-15
2.2281257e-17
1.0845353e-17
1.885565e-17
3.0710786e-19
5.2575308e-19
3.0287723e-19
1.3424893e-21
3.7309974e-17
2.9569969e-19
4.3579236e-25
5.4864709e-25
4.481271e-23
1.932289e-20
3.0001316e-19
2.9173873e-18
2.748004e-20
5.5802054e-23
1.4584878e-26
2.2810955e-28
1.288685e-29
9.4478871e-23
1.6506885e-20
9.5883431e-20
4.5401425e-23
3.6164291e-28
3.3679412e-26
8.8124819e-29
1.2862983e-30
1.4153666e-25
4.4439972e-23
1.34548e-22
1.241198e-25
3.1244643e-28
4.4728399e-28
1.611872e-29
3.3868627e-31
8.8406433e-30
1.1246269e-28
2.005631e-28
4.1849419e-07
5.1187702e-08
2.0336735e-11
8.9579383e-14
7.9518874e-14
5.5054818e-06
4.6756383e-07
4.8039074e-09
7.8148807e-13
8.3271025e-11
9.4001358e-12
9.3572563e-14
1.1716254e-13
1.1723507e-13
4.3103417e-08
8.7667102e-09
7.7966972e-13
2.8325234e-15
6.7827805e-14
9.3645518e-14
8.0990116e-15
2.0256603e-11
4.4478336e-12
2.4266194e-10
8.7342731e-14
1.0137431e-15
7.2649855e-17
2.6717945e-15
3.0393729e-16
7.8160042e-14
6.6082692e-18
1.5435315e-16
2.8424771e-15
3.5440131e-17
1.0094676e-19
3.8820568e-18
1.6046453e-19
2.5241821e-21
1.2804529e-17
1.5308297e-16
6.628436e-18
3.5053468e-20
3.7035572e-23
1.3990305e-25
7.7336259e-24
1.5682974e-21
5.3551698e-19
3.9914559e-18
9.7489252e-25
7.6054049e-26
3.7192593e-26
4.2993536e-29
9.2169406e-27
2.728944e-23
8.2533931e-22
3.12036e-21
3.6745911e-27
2.4826867e-29
2.1417072e-28
4.5400881e-31
2.125896e-32
6.9140936e-29
4.5461292e-28
1.5179749e-27
2.0875884e-06
3.8664456e-07
4.9940743e-12
1.4682153e-07
4.2236264e-07
1.0745786e-05
1.3566652e-07
9.8263773e-07
1.1339569e-12
1.0538412e-09
1.7093552e-11
1.3489829e-09
1.6943376e-15
5.2898783e-07
2.2992903e-07
2.5757062e-08
3.4474777e-12
2.1649479e-13
3.8410572e-13
1.0277137e-14
3.2871814e-15
8.8252575e-09
1.3929343e-10
1.3436878e-09
1.6654725e-12
6.0073071e-14
9.9790018e-16
8.6546127e-15
5.3684058e-16
4.8008155e-16
2.5661953e-16
3.7672579e-16
1.6338069e-13
3.3493707e-15
2.3354505e-18
2.9321444e-16
1.1302594e-17
1.4255859e-20
1.9089069e-16
3.8117446e-15
1.6398129e-15
4.0024306e-18
3.9088331e-21
1.5828107e-19
6.0772836e-20
1.3567532e-22
5.995543e-18
8.1208969e-17
4.4602268e-21
6.1835072e-25
9.1342548e-28
8.0473008e-27
4.5620082e-24
1.2005008e-22
1.750793e-20
1.1919226e-19
1.8862147e-24
4.3835437e-27
1.5229324e-28
8.3636314e-30
1.3053387e-30
7.2885427e-25
6.0191551e-27
2.3227006e-26
4.2322678e-06
2.3560204e-07
6.7599957e-13
6.625049e-07
4.635347e-05
8.3350988e-06
3.6745424e-10
7.8770555e-07
1.5459589e-07
4.3309569e-10
6.1246404e-13
6.1107138e-08
5.4955723e-17
2.967551e-06
2.1273202e-07
2.6600705e-08
2.1024804e-12
2.0863046e-12
6.4563356e-12
5.4955881e-17
9.1146286e-18
5.4955724e-17
1.3585738e-10
1.7137958e-09
7.6718704e-12
4.6949426e-13
5.3590456e-14
9.1146028e-18
7.7577211e-18
7.4596963e-13
3.1036127e-16
3.5595608e-16
6.4836217e-13
1.9861795e-14
4.7920279e-16
4.8757876e-16
7.745271e-18
2.0679764e-15
1.230657e-15
4.2035967e-14
1.2257218e-14
2.3417362e-17
7.865351e-19
7.0517515e-18
2.5522792e-19
7.7429952e-22
4.257231e-17
4.6426113e-16
5.3817947e-17
2.6006132e-23
5.5276544e-26
6.9910939e-21
2.1675054e-21
7.4912566e-22
1.2449102e-19
1.3214392e-19
8.1406216e-24
5.5266395e-26
5.9752918e-28
3.3064832e-27
3.6351363e-23
8.0761976e-24
1.6803595e-20
4.3810443e-23
1.7362118e-05
6.1902667e-08
1.3420165e-09
1.122205e-07
6.8224117e-05
6.8194939e-06
3.6752784e-10
2.4315432e-08
6.8508846e-06
5.0566687e-08
5.3647533e-13
1.3820282e-07
2.2931773e-05
3.1981867e-06
2.8915253e-08
2.5144933e-08
3.1696255e-12
1.5805937e-12
5.2298996e-13
2.5073083e-08
3.7801077e-16
2.3134204e-15
3.4985013e-09
1.2141e-09
1.0948188e-12
8.6213009e-13
5.2193939e-13
1.8789576e-11
1.3527793e-17
3.5426384e-16
3.5595601e-16
3.6203535e-16
8.7516303e-11
1.7280281e-12
1.5613826e-15
2.3656142e-18
2.4029319e-18
2.1959672e-15
1.2160126e-14
5.1263595e-13
6.3634319e-12
2.4858527e-13
7.8218019e-17
1.8768335e-18
1.74299e-21
1.594712e-18
1.5492748e-16
2.525974e-15
3.1888844e-14
1.5004173e-15
1.7591747e-18
3.2580649e-20
5.1090504e-23
7.4801397e-21
2.5900318e-17
3.071218e-22
1.582292e-19
1.585693e-23
5.6839858e-22
6.1361675e-22
4.9653753e-23
4.2607495e-23
1.6244874e-20
3.0648336e-22
1.6288206e-05
6.1882594e-07
2.2958174e-10
2.3009053e-10
6.8236191e-05
7.9873584e-06
1.5890042e-06
1.6304876e-10
5.2652117e-06
2.6714624e-08
4.349902e-12
2.4216038e-09
6.822437e-05
2.6084185e-06
7.6361823e-11
4.3280807e-09
1.5379546e-06
3.2241543e-12
6.8782864e-11
2.5602432e-08
1.3891522e-05
2.2411235e-13
5.4401625e-09
2.6558853e-10
3.8646131e-09
1.6530556e-12
1.8359507e-11
5.0315408e-09
1.4204622e-12
9.1373393e-16
3.6849455e-16
1.2557144e-11
2.1918819e-10
6.6969245e-12
7.7017751e-13
2.8421112e-16
2.710956e-15
1.918713e-13
6.6743949e-13
6.3995081e-12
1.1855991e-11
4.5208803e-13
2.2897581e-20
6.3268502e-20
2.0901303e-18
1.6594781e-15
1.800177e-15
1.5264612e-21
9.4801149e-14
1.1295888e-15
2.6240477e-22
5.0348093e-23
1.7766575e-21
2.832449e-17
4.6444481e-17
1.4299827e-21
1.8651232e-16
2.8405364e-19
4.2932875e-22
1.1185696e-23
4.1276135e-22
4.31218e-23
7.2899864e-23
2.1313749e-21
6.3189208e-06
1.2079198e-06
4.4983873e-12
7.3604495e-07
6.8242996e-05
9.4511697e-06
1.6405985e-05
4.6504822e-05
2.8207151e-06
2.0955184e-08
4.4689052e-12
8.3516318e-12
6.8240154e-05
3.0684527e-06
1.7143142e-11
1.3754662e-11
3.1441532e-07
1.9736247e-11
1.2277649e-10
2.3859154e-12
6.5076878e-05
1.3751383e-06
5.2869946e-09
1.259601e-11
2.2392838e-09
5.5902422e-12
4.3941055e-11
5.4863277e-09
8.2258938e-06
3.4391437e-07
1.7378908e-15
1.2566657e-11
2.1625808e-10
5.6108409e-12
2.6388573e-10
9.0179846e-09
1.7437772e-12
5.2770816e-15
1.247855e-10
3.0846302e-11
1.1147303e-11
6.814647e-13
3.3473711e-11
1.3970956e-10
5.2503717e-15
4.3238822e-17
1.5008914e-15
2.4888943e-13
8.7552041e-14
4.7841516e-14
1.6255602e-13
6.3266485e-20
3.7412633e-17
2.8447527e-17
1.4958556e-15
1.5264612e-21
1.6365782e-16
3.5884752e-21
1.3856332e-23
5.0348254e-23
2.4737269e-18
1.2068513e-13
7.4465728e-15
3.7145775e-19
2.9798788e-06
8.3588945e-07
4.6692456e-12
2.0154283e-06
5.3853244e-05
8.8560259e-06
1.7891825e-05
7.2634004e-05
3.0548736e-07
2.9565502e-08
1.2510776e-08
2.3849951e-12
6.8240962e-05
3.8669887e-06
2.9634399e-10
2.8115262e-05
2.8541558e-09
2.3952335e-12
2.3859024e-12
2.0362242e-12
6.8233454e-05
1.9577777e-07
3.8022705e-09
7.5563329e-12
7.7320715e-10
2.4046473e-12
1.9776492e-11
2.3859352e-12
6.0019698e-05
8.221254e-07
6.0460151e-13
1.456107e-13
1.4156944e-10
2.8140227e-12
2.3823167e-10
2.1190974e-09
1.2427366e-05
2.1840164e-07
1.0565427e-10
6.3472628e-14
4.9680075e-12
5.5905281e-13
8.3472445e-11
1.3739268e-08
3.2415225e-07
1.7615639e-08
1.5086982e-15
6.2952529e-14
6.46727e-14
2.1892885e-13
3.4778497e-11
2.4295772e-09
2.2591264e-09
3.6616778e-10
2.3332781e-15
4.1575867e-14
4.7276516e-16
4.7747797e-14
3.7218669e-12
1.2322381e-11
1.243266e-16
7.5425617e-13
4.6849534e-14
1.6449538e-15
2.5748002e-06
1.0889014e-07
2.56892e-09
2.0967399e-12
8.8616521e-06
1.5763307e-06
2.5937727e-05
7.382823e-05
2.2563063e-10
7.9796845e-08
7.9129697e-08
1.682075e-12
4.6373835e-05
4.3354097e-06
3.0210144e-07
8.1408633e-05
2.218675e-10
3.3238942e-09
3.0697327e-08
1.6842775e-12
5.2857062e-05
6.6264192e-12
1.0819286e-12
4.8918693e-05
3.155179e-10
6.4763782e-10
2.337424e-13
7.4938728e-12
6.1102861e-05
2.6164652e-07
5.0218929e-13
2.2493168e-06
6.6872238e-11
1.2206448e-13
1.2936056e-13
8.7335447e-13
5.4194812e-05
5.5541638e-07
4.8265029e-14
4.0228604e-13
3.5695759e-12
1.188455e-13
1.2206491e-13
8.8580232e-09
9.8622283e-06
2.9532485e-07
2.4890493e-14
2.4872803e-14
2.0527955e-14
1.1559605e-13
1.5015562e-11
2.8455141e-09
4.1033209e-08
2.413086e-09
2.712544e-14
2.2294746e-14
4.3188578e-16
2.1575199e-13
1.2709819e-11
1.2583888e-10
1.4710659e-13
4.0489942e-12
3.0051288e-13
2.2263451e-14
4.7216164e-06
1.6623542e-11
1.0187758e-11
2.8534982e-05
4.4610834e-07
4.4549147e-07
2.875546e-05
8.0969204e-05
2.2210655e-10
6.9174851e-08
3.0507384e-08
1.6821653e-12
3.7446517e-06
2.7861574e-06
3.7768679e-06
8.172661e-05
2.2206524e-10
2.7687122e-09
1.3375482e-08
1.682075e-12
6.9873915e-06
1.7819515e-08
2.4235431e-06
8.1769203e-05
1.7086748e-10
5.3579438e-09
8.4530391e-08
1.6842775e-12
2.180608e-05
2.8435439e-07
5.7860948e-06
6.5743327e-05
5.2500372e-11
1.3178265e-08
1.2114413e-07
1.6574339e-12
3.0946631e-05
8.7819533e-07
2.0590752e-06
7.2304707e-06
3.1387551e-12
8.2039712e-09
4.3207538e-08
9.4425531e-13
7.4255583e-06
6.5590999e-07
4.8265408e-14
1.822756e-12
4.3160643e-12
1.0276432e-15
1.499605e-15
7.4393474e-14
1.5094097e-12
3.466915e-14
1.9052285e-13
2.4892796e-14
4.1342908e-12
1.6107973e-18
4.5072143e-16
7.8050545e-15
2.2869507e-15
2.9579821e-14
3.3252113e-17
4.1624888e-14
5.4042839e-06
4.3599775e-11
9.3576819e-12
0.00094496936
2.9734907e-05
1.305003e-08
1.2960205e-05
3.5604133e-05
2.5089488e-10
6.8990996e-09
1.0108733e-11
0.000957218
1.0083358e-05
1.3309105e-08
1.2546676e-05
5.1828897e-05
9.1893438e-11
1.0044574e-09
9.6335175e-12
0.00093661403
1.4419992e-08
1.4189714e-08
5.274516e-06
8.1806898e-05
8.8144825e-11
1.8551495e-09
4.3378253e-11
0.00093461738
2.631882e-08
6.7724639e-08
5.7116117e-06
8.1784988e-05
4.1855407e-12
4.3962421e-12
2.9104092e-06
0.00088576007
7.7700853e-08
5.5749737e-07
2.9098874e-06
5.8584422e-05
2.5310002e-12
2.6959158e-09
1.1293843e-05
0.00064671337
1.5787701e-07
5.7965048e-07
1.500126e-07
3.6805521e-06
2.5114953e-12
8.1108229e-09
1.8827369e-05
0.00051782323
9.0108919e-08
1.2904614e-12
1.9387604e-13
1.0021826e-12
1.2573872e-12
9.1453855e-08
2.4122579e-05
0.00028626114
6.4311902e-12
1.5377128e-13
2.4792507e-10
4.591055e-14
2.0437639e-06
9.3576819e-12
8.607779e-12
0.0010212713
0.00063056037
1.2626074e-08
5.4658903e-07
2.581215e-06
2.5197978e-06
1.61583e-11
9.2708375e-12
0.0011596816
0.00058968486
1.063015e-08
1.0937113e-05
3.7641395e-05
2.3643743e-09
5.7137998e-10
8.5921413e-12
0.001161
0.00054534836
9.0581832e-09
6.8183924e-06
8.1798077e-05
2.3311303e-11
5.9275769e-12
7.3861914e-05
0.00083997554
0.0005248337
1.4432996e-06
3.883498e-06
8.1806438e-05
1.2601832e-11
5.2622897e-12
1.3713622e-05
0.0011000605
0.00043656256
2.7990725e-08
2.4326203e-06
4.8601494e-05
2.5609573e-12
4.2589449e-12
2.3028525e-11
0.0011784696
0.0002877819
5.561937e-07
7.2497937e-08
1.0948581e-06
3.4652703e-12
4.2431128e-09
1.0666477e-09
0.0011757867
0.00021239756
1.0076371e-10
1.3529796e-12
4.971108e-13
2.5329272e-12
6.4378956e-08
2.8820312e-09
0.0011743702
0.00023553822
2.3030147e-10
1.0305629e-10
2.9357191e-12
3.8465172e-08
6.5617599e-11
8.5999601e-12
0.001120231
0.00060006303
1.4678742e-06
7.560842e-08
6.9360586e-08
3.7384246e-07
1.0379066e-11
8.5921413e-12
0.0011512323
0.00065721526
9.0581832e-09
5.5279318e-06
1.3266665e-05
3.8997783e-09
2.3444615e-11
8.5921413e-12
0.0011614893
0.00063276243
6.464536e-09
6.3202594e-06
4.0078615e-05
3.9300476e-11
5.8246031e-12
7.2513502e-12
0.0011832323
0.00065998401
2.3949071e-09
3.1450914e-06
5.5315501e-05
2.1336784e-11
5.7243259e-12
5.8245787e-12
0.0011841773
0.00062561105
4.8464934e-10
1.7167512e-06
9.6582439e-06
1.126817e-11
5.7929511e-12
1.3609046e-11
0.001182973
0.00060188508
2.9830394e-11
4.9971646e-12
5.4652282e-13
4.6136133e-12
2.7770504e-09
1.0620489e-09
0.0011804838
0.00050798471
6.7472297e-09
5.4001946e-11
3.8729657e-13
6.0658274e-12
6.1341327e-08
2.0932848e-09
0.0011776445
0.00046919712
9.7004592e-09
2.7720663e-10
7.3488594e-13
2.2864304e-09
2.3903443e-11
8.6565892e-05
0.0011859056
0.00029146307
1.3648148e-05
5.0525797e-07
1.3209501e-08
4.7300426e-08
1.7393252e-11
0.0001150912
0.0011859024
0.00032249656
5.3599534e-06
1.6629579e-06
7.5574948e-07
1.1829738e-08
8.6390141e-12
0.00012633043
0.001185883
0.00031706795
6.2119165e-07
2.2245816e-06
1.2996326e-06
2.3584148e-09
5.7243259e-12
0.00013556443
0.0011857805
0.00033225029
1.4156328e-07
1.5883089e-06
3.9004155e-06
2.2248424e-11
5.707013e-12
0.00013492503
0.0011854005
0.00031153568
2.9830394e-11
6.367783e-07
1.1279703e-06
1.3936841e-11
5.7103137e-12
0.00012690044
0.0011846135
0.00030241452
9.2885929e-12
4.8452198e-12
3.8876549e-13
1.9857563e-11
5.7929511e-12
8.6665957e-05
0.0011833541
0.00023456048
1.1379735e-11
1.2411091e-11
3.8766234e-13
2.9911196e-11
1.8686983e-11
8.9303205e-05
0.0011812089
0.00022281859
1.172425e-10
3.2593827e-10
6.5889026e-13
7.7281139e-10
2.4274455e-11
8.084856e-05
0.00037598087
2.9053049e-05
2.0121552e-05
4.3290211e-06
2.6840627e-08
1.1662187e-08
2.0246285e-11
8.1447281e-05
0.00058287169
2.1738501e-05
9.979531e-06
2.4042838e-06
6.665375e-08
3.5336221e-08
1.0821405e-11
6.0172202e-05
0.00056424266
1.5450841e-05
2.6050548e-06
4.9700318e-07
2.5611487e-09
1.3266782e-08
5.7069918e-12
6.4878526e-05
0.0006752081
6.7535212e-06
4.7003569e-07
2.3824894e-07
3.6109096e-09
5.7069916e-12
5.707013e-12
7.6910929e-05
0.00058810707
9.7661456e-06
9.401264e-07
3.1774247e-07
3.1952091e-12
6.3556617e-12
5.7069913e-12
8.165618e-05
0.00060730984
9.6656995e-06
5.9359965e-07
3.1950795e-12
2.9814635e-12
1.6523027e-10
5.7103137e-12
7.9275465e-05
0.00053313055
8.1901418e-06
2.3300925e-07
1.7469469e-12
4.031309e-13
1.6517556e-09
6.0569931e-12
9.5805213e-05
0.00049351676
1.706078e-05
3.8395321e-11
2.0736867e-11
6.2253065e-10
2.291735e-09
7.8231352e-06
5.1241528e-05
3.1773078e-06
3.1773104e-06
1.8790265e-05
1.3034544e-05
1.4575418e-07
9.7962652e-08
4.2744887e-06
2.499412e-05
4.0089392e-06
3.3045583e-06
7.8737979e-06
5.5843566e-06
2.6725071e-07
7.4063063e-08
4.6884512e-06
3.2238074e-05
1.8225204e-06
1.6012853e-06
1.1009332e-06
1.0980473e-06
1.5557755e-07
5.7777951e-12
4.2353537e-06
6.0411233e-05
3.4350632e-06
1.2511482e-06
1.6364582e-06
1.8525491e-06
1.6472347e-07
5.742394e-12
1.7080964e-06
7.7663089e-05
1.4349111e-06
1.1523017e-06
3.5081992e-06
1.853329e-06
7.8905123e-11
5.7777951e-12
1.2708262e-06
7.8016283e-05
1.4219946e-06
1.0896508e-06
3.5056123e-06
1.9510194e-07
3.1950795e-12
8.7014394e-12
3.8352265e-06
8.027754e-05
1.0203326e-06
9.9643326e-07
1.6399392e-06
5.0344466e-08
7.652793e-09
8.0920004e-09
4.3332509e-06
8.2040098e-05
6.1634547e-07
9.211911e-07
6.855427e-07
1.1676329e-07
1.8546386e-10
2.0957435e-09
8.4205516e-06
5.12374e-05
4.372381e-06
0.00018978035
2.3191588e-05
1.4917901e-05
2.6163125e-07
8.3029857e-08
7.2426078e-06
1.7655704e-05
6.7257319e-06
0.00016857651
4.2990133e-05
1.0819183e-05
1.1134887e-07
6.1693223e-07
1.0503172e-05
2.0652713e-05
2.5195776e-05
7.6018554e-05
3.1678784e-05
4.6447881e-06
9.0296666e-08
6.9705535e-10
3.4725654e-06
3.7875227e-05
1.8174343e-05
3.1928665e-05
6.3928668e-06
9.6236484e-07
5.6322074e-08
4.7138392e-08
7.1908286e-06
3.3646119e-05
1.7736019e-05
9.3358133e-06
2.2355639e-06
1.0643511e-06
2.9064275e-07
9.2418138e-07
2.2025664e-05
3.4022558e-05
2.4617182e-06
1.1615539e-06
2.0662829e-06
2.431841e-06
6.2208759e-07
9.6024524e-10
9.9056175e-06
4.4601087e-05
5.6998611e-07
1.0270231e-06
3.340938e-06
1.9675573e-06
3.4728059e-08
6.8354442e-08
6.8418478e-06
2.8096168e-05
5.0425717e-07
6.0467505e-07
1.9012298e-06
3.0061595e-09
2.9862701e-10
2.1262817e-09
1.1085583e-06
1.5371314e-05
5.0325938e-06
4.9964717e-05
2.9308143e-05
1.4734517e-05
2.2252429e-07
2.1250893e-09
2.3543068e-06
5.7640589e-05
0.00012286572
0.00030214593
0.00010073104
1.0600556e-05
1.8998692e-07
1.9281463e-06
1.0007103e-05
4.5949765e-05
0.00053125012
0.00033344908
0.00020974728
3.6827706e-06
9.1583801e-09
6.9139967e-06
2.1271586e-05
3.9856022e-05
0.00039755872
0.00023564336
9.6025601e-05
1.020736e-06
1.0631225e-07
3.3801546e-06
1.3968836e-05
2.8762534e-05
0.00026512972
0.00044610507
6.3359009e-05
1.6448853e-06
7.9211671e-07
6.7245327e-07
1.0228598e-05
8.1963135e-06
0.00020170756
0.00054927043
4.6312476e-05
2.2374824e-06
3.6834983e-07
2.8900065e-07
3.3035025e-06
4.9628596e-07
6.0538512e-05
4.2993316e-05
2.1495679e-05
1.1767328e-06
1.4473458e-09
4.6990032e-07
1.3312386e-06
2.1517923e-07
9.474536e-06
2.9954508e-06
1.1029768e-05
3.246459e-07
1.2870509e-09
0.00018858022
2.9904128e-06
3.016116e-06
0.01617228
0.030172196
5.0715015e-07
5.1357392e-06
3.7923572e-06
1.2433827e-05
8.3269898e-06
2.2736114e-05
0.014955796
0.029925742
4.1712392e-07
3.6965839e-06
8.1584084e-08
1.9362445e-06
9.7192779e-06
0.00021792144
0.01042895
0.027923378
8.4778257e-08
5.2805328e-08
9.8657559e-09
8.4906951e-06
1.1197023e-05
0.00018745909
0.0083077665
0.026876993
2.2785982e-07
3.2712066e-07
1.480361e-07
1.1393652e-05
1.1943798e-05
0.00019089199
0.0064194219
0.022968631
2.0739688e-07
3.5427558e-07
5.1016275e-07
2.3494987e-07
2.1143932e-05
0.00038164246
0.005367365
0.020708236
2.9338574e-08
5.3912204e-09
1.6194897e-09
2.0809165e-07
3.6592157e-05
0.00035080322
0.0036782735
0.013601896
1.4923754e-08
5.5271709e-09
1.4680477e-09
4.8714779e-07
3.6962488e-05
0.00014876649
0.0020027922
0.011178153
1.3171977e-08
2.1576265e-09
1.3999778e-09
0.00025978062
2.1469887e-06
2.6593805e-06
0.13465514
0.16468794
2.0652468e-07
1.1682682e-07
1.4561382e-05
7.504747e-05
1.5285942e-06
1.9611367e-06
0.1398968
0.17366888
1.1683191e-07
9.6211123e-08
6.038633e-08
1.5285942e-06
1.277019e-06
0.00066059233
0.13748368
0.16949397
9.6211104e-08
6.4251241e-08
1.7472266e-08
3.4574613e-06
1.0275877e-06
0.0038026249
0.12563022
0.17251593
2.9452152e-07
9.6212308e-08
1.2743665e-07
7.586252e-06
1.2540502e-06
0.0038613886
0.11334219
0.17046364
0.00013695536
2.0699198e-06
4.292509e-08
2.8722301e-07
4.898765e-07
0.0059423532
0.093492688
0.16093227
0.0032744023
5.3584012e-07
1.6754193e-09
2.0804418e-07
1.2659848e-05
0.0080811188
0.077199137
0.16220947
0.00011922415
8.4714233e-08
1.2837605e-09
6.7132942e-07
1.0285289e-05
0.0060621112
0.070121022
0.13873224
0.0017788707
1.7792418e-07
1.2890921e-09
0.00014543198
8.0968541e-07
0.060227796
0.20005921
0.20005921
0.045655229
2.0652351e-07
4.1806338e-05
0.00010614601
1.3022625e-06
0.074540655
0.2000683
0.2000573
0.061239062
1.1682675e-07
2.371708e-05
4.3351942e-05
7.2429212e-07
0.074168371
0.20009196
0.20010937
0.058533508
9.6211104e-08
9.6581111e-06
1.0275905e-06
6.5646134e-07
0.079331058
0.20010937
0.20012386
0.064272559
1.5377943e-07
8.4770415e-08
8.2574299e-07
4.323883e-07
0.077861389
0.20012142
0.2001279
0.060317631
8.4769907e-08
5.6537783e-08
5.3396395e-06
4.2426778e-07
0.068985118
0.20012836
0.20012225
0.067798265
4.4929531e-05
1.6094897e-07
9.7670701e-06
1.1447271e-06
0.049729545
0.1993636
0.20012326
0.068632989
4.8556574e-06
9.6083221e-07
2.7145347e-07
0.00046413369
0.077254362
0.18455184
0.19648215
0.079174094
0.0001988191
7.9695707e-08
3.5988482e-05
5.6561615e-07
0.008149811
0.14801375
0.15349163
0.0052310781
4.0928012e-07
1.6736558e-05
3.34347e-05
6.9634595e-07
0.011301767
0.14974606
0.15694938
0.0099591522
3.6508128e-07
2.5441968e-05
1.5078813e-05
4.2413636e-07
0.010472839
0.14803214
0.15514441
0.0093451121
3.2365271e-07
1.1061884e-05
1.0542122e-05
4.1533183e-07
0.010021055
0.14437608
0.16067115
0.013419345
1.0389255e-07
2.1001411e-06
4.3204951e-07
3.9605486e-07
0.0077550778
0.14084617
0.1591298
0.0090566731
7.2571561e-08
6.684393e-08
8.8485006e-07
3.9269873e-07
0.0087848546
0.12643645
0.16379728
0.013707483
9.8160924e-08
4.0773756e-08
7.2108846e-06
4.2549787e-07
0.0096784379
0.11291272
0.13237278
0.020081263
3.4347021e-07
5.6088402e-06
4.8515783e-06
0.00020148337
0.012917824
0.087095608
0.1035688
0.022722774
0.0001817406
2.5271004e-05
3.2745848e-05
4.7832919e-07
4.5309159e-07
0.024966572
0.038994516
1.894343e-06
1.7627306e-06
2.1223938e-05
3.2609494e-05
1.2408813e-06
4.2050805e-07
0.02594978
0.042140116
3.9073907e-06
7.4812385e-06
4.0606823e-05
4.2413636e-07
4.2096065e-07
4.2336767e-07
0.023381088
0.040999964
1.3769156e-05
0.00012031258
3.9010177e-05
1.2657e-06
3.9605454e-07
4.1056544e-07
0.02124201
0.040598301
2.8444013e-05
0.00015014849
1.193091e-05
3.9605387e-07
3.9180096e-07
3.992979e-07
0.018228331
0.036997852
0.00017177452
7.9258014e-05
7.2569415e-08
3.9275255e-07
3.8775045e-07
6.1303128e-07
0.015868087
0.033252609
4.9449129e-05
1.3451694e-07
1.091955e-07
5.2855967e-06
4.0770365e-07
6.8689186e-07
0.012876563
0.027762181
0.00048540134
3.4369292e-07
7.2547254e-07
2.1497613e-05
1.5944567e-06
1.7497046e-06
0.0087729466
0.017608463
0.00067712027
5.6111338e-07
3.7666466e-06
5.0181398e-06
4.7664666e-07
5.8018792e-05
3.7225962e-06
1.2500552e-05
0.00012162009
3.6323052e-05
2.3078858e-05
2.3285704e-05
4.4308265e-07
1.3498735e-05
9.9137467e-05
5.0007217e-05
5.6113163e-05
4.0495115e-06
1.4476052e-05
1.4930341e-05
4.1106756e-07
4.2336766e-07
0.00029711587
0.00032766036
2.0838168e-05
7.0150007e-06
4.8735287e-05
1.0527204e-05
3.9192964e-07
4.1380937e-07
0.00038401958
0.00046293325
3.3397135e-05
8.157319e-05
4.8741715e-05
3.9194126e-07
3.8772972e-07
3.9197911e-07
0.00034537345
0.00046413694
3.2277714e-05
0.00011976588
1.4636419e-05
3.8775594e-07
3.8380183e-07
3.8999428e-07
2.4096787e-05
0.00034422165
3.8610349e-05
0.00011992189
9.6884896e-07
8.8417889e-06
2.0205218e-06
4.066232e-07
1.7807769e-06
4.6973897e-05
4.7698591e-05
0.00011242834
1.2605772e-07
6.8536353e-05
1.9336659e-06
7.056721e-07
2.701167e-06
2.0350729e-05
3.7119849e-05
9.9742035e-05
1.0259402e-07
5.02188e-06
4.3047478e-06
3.7812425e-05
2.9062571e-07
5.3682032e-08
5.5361057e-05
5.3727181e-05
3.8139357e-05
3.6328096e-06
4.5987894e-07
4.1330401e-05
4.0977414e-07
1.0139711e-06
7.0599752e-05
1.7530367e-05
8.8752254e-06
8.4108952e-06
4.4778756e-07
1.0432667e-05
5.7996973e-07
9.730843e-07
4.0702779e-05
9.7257468e-06
4.1627577e-05
1.1735781e-05
4.5158966e-07
4.6240892e-06
6.4987437e-07
2.9238142e-06
1.7594817e-05
2.3688636e-05
6.6525578e-05
1.3174882e-05
3.8379923e-07
1.7415656e-06
6.9797058e-07
3.59259e-06
4.6331187e-06
4.6009488e-05
2.4186595e-06
3.838029e-07
3.8379923e-07
7.4819868e-07
4.8676982e-06
5.3171629e-06
4.1299888e-06
6.2731626e-05
7.8666263e-06
3.8509542e-06
5.2810469e-07
4.0914092e-07
3.3569681e-06
5.7953965e-06
3.8541214e-06
7.0087371e-05
1.0259402e-07
4.5658549e-05
1.2248918e-05
6.3118141e-07
7.722767e-07
6.4705987e-06
6.0072528e-06
4.5837877e-05
9.1852206e-08
1.6541643e-05
8.8808163e-06
2.9515009e-05
2.8479966e-07
9.4754294e-10
7.1776916e-06
3.3449404e-05
4.0327991e-05
4.7822664e-06
1.6235373e-06
4.5313148e-05
3.0738408e-07
7.0007296e-07
6.8691037e-05
3.9092566e-05
9.0192404e-06
2.377314e-06
4.6015466e-07
1.0198587e-05
4.0439873e-07
5.6956745e-07
6.8705795e-05
1.0794089e-05
3.305292e-05
8.2796448e-06
6.8669125e-07
9.7197348e-06
4.127554e-07
6.0578518e-07
1.4298122e-05
3.8118544e-05
6.6814318e-05
1.489151e-05
3.9253966e-07
4.3556375e-06
4.2033774e-07
6.4375228e-07
2.3314504e-06
2.1681506e-05
7.4927775e-07
3.6563275e-06
3.8356505e-07
1.2506719e-06
5.1439548e-07
2.414079e-07
1.6092372e-07
8.7602907e-08
7.4348277e-07
6.6132099e-06
1.71431e-06
4.0696211e-07
3.0414205e-06
7.1333045e-07
3.1970717e-06
7.7220335e-07
1.1153339e-07
4.659455e-05
1.9963977e-05
1.5054473e-06
1.4253277e-06
1.0469914e-06
6.624163e-06
1.6580859e-07
9.7933545e-08
1.3033931e-05
7.6064316e-06
1.7917844e-05
6.8546802e-07
7.8827132e-10
5.4477244e-08
7.580428e-06
1.8265386e-05
2.3571748e-06
7.9446886e-06
4.5317908e-05
4.0133926e-07
9.5825747e-07
3.680398e-05
3.9043906e-05
1.5891177e-05
5.7450936e-07
5.7123556e-07
4.3991207e-06
4.0329085e-07
3.3781725e-06
6.847919e-05
1.085528e-05
2.9387834e-05
4.9791776e-06
1.2277286e-06
6.1780511e-06
4.0793199e-07
2.3815109e-06
1.6618442e-05
4.2459483e-05
6.6872754e-05
8.3631708e-06
3.3776377e-06
4.8377426e-06
4.166423e-07
6.872424e-07
1.0691209e-05
3.0688154e-05
6.7746631e-06
9.828218e-07
3.925401e-07
5.9577409e-07
5.2344645e-07
2.3475802e-06
8.7602077e-08
8.4455156e-08
8.4427215e-08
4.8564097e-06
3.520642e-06
2.7826836e-07
9.3566346e-07
3.7299851e-07
5.5674213e-06
8.4472734e-08
8.4383631e-08
6.9872021e-05
1.6290158e-05
1.0526324e-06
1.8235268e-06
3.1268498e-07
9.6252082e-07
8.4876337e-08
8.4487065e-08
2.3059981e-06
1.9551096e-06
4.4166288e-06
5.4775964e-07
7.8221052e-10
3.4310607e-08
2.2926574e-06
1.7381657e-06
1.7183916e-06
7.7003649e-06
4.5289745e-05
2.831338e-06
2.0092708e-07
6.6175749e-06
3.7512008e-05
3.8552954e-05
5.0070442e-07
5.8015323e-07
5.1621018e-07
4.0746957e-07
4.2351758e-06
3.7020564e-05
1.4310546e-05
1.1660649e-05
3.5544563e-06
1.0378942e-06
1.8225165e-06
4.1603215e-07
1.0089106e-05
4.0322134e-05
3.6039165e-05
6.6765123e-05
6.648754e-06
6.7088945e-06
6.4933439e-06
4.2033605e-07
6.7847747e-06
4.137187e-05
6.2514041e-05
5.2995923e-05
1.1201593e-06
1.0247975e-06
2.7823841e-07
4.4835489e-07
2.0595298e-05
0.00010796453
8.439781e-08
8.438813e-08
5.4164101e-07
2.5764932e-06
2.7686313e-07
1.4061956e-06
2.386038e-05
1.0578177e-05
8.4357413e-08
8.4397677e-08
5.2499816e-05
7.3641195e-06
3.8675866e-07
6.7329383e-06
7.4902109e-06
8.5158059e-08
8.4457527e-08
8.4427215e-08
4.0216576e-07
1.2038315e-07
7.5795644e-07
1.3791901e-07
7.8221084e-10
1.8591862e-08
1.6659527e-06
4.6194276e-11
3.1601883e-06
2.2056427e-06
9.834832e-06
8.3205944e-06
1.013292e-07
2.3362784e-06
2.8382775e-05
2.638585e-05
5.8629559e-06
7.8157065e-07
8.2005377e-07
5.4263842e-06
3.2100772e-06
1.5453895e-05
2.8953242e-05
9.1249753e-06
2.3903765e-06
6.4545356e-07
5.4504129e-07
4.3788306e-07
1.288548e-05
6.6829826e-05
2.0465151e-05
2.0525887e-05
6.7088945e-06
6.7154914e-06
4.3947738e-06
4.4091351e-07
2.2106137e-05
0.00012527408
0.00011270485
6.9276424e-05
1.8525168e-06
1.3626859e-06
9.4557508e-07
4.9718741e-07
3.5986296e-05
0.00015009192
4.2929776e-05
6.5923752e-05
3.3995686e-07
6.0360065e-07
2.7767987e-07
7.3476908e-07
4.852331e-05
0.00010746505
8.4403479e-08
1.0404202e-05
2.1525274e-05
1.2015262e-06
2.6863522e-07
1.1908915e-05
6.37968e-05
1.1583724e-07
8.4375075e-08
3.2661829e-07
4.4004651e-08
5.120942e-13
5.7443245e-07
9.7388857e-10
9.7284877e-10
2.2673188e-09
2.8627302e-07
7.7756642e-14
5.9343438e-06