/*--------------------------------*- C++ -*----------------------------------*\
  =========                 |
  \\      /  F ield         | OpenFOAM: The Open Source CFD Toolbox
   \\    /   O peration     | Website:  https://openfoam.org
    \\  /    A nd           | Version:  13
     \\/     M anipulation  |
\*---------------------------------------------------------------------------*/
FoamFile
{
    format      ascii;
    class       surfaceScalarField;
    location    "0.06";
    object      alphaPhi.water;
}
// * * * * * * * * * * * * * * * * * * * * * * * * * * * * * * * * * * * * * //

dimensions      [0 3 -1 0 0 0 0];

internalField   nonuniform List<scalar> 
150720
(
0
0
0
0
0
0
0
0
0
0
0
0
0
0
0
0
0
0
0
0
0
0
0
0
0
0
0
0
0
0
0
0
0
0
0
0
0
0
0
0
0
0
0
0
0
0
0
0
0
0
0
0
0
0
0
0
0
0
0
0
0
0
0
0
0
0
0
0
0
0
0
0
0
0
0
0
0
0
0
0
0
0
0
0
0
0
0
0
0
0
0
0
0
0
0
0
0
0
0
0
0
0
0
0
0
0
0
0
0
0
0
0
0
0
0
0
0
0
0
0
0
0
0
0
0
0
0
0
0
0
0
0
0
0
0
0
0
0
0
0
0
0
0
0
0
0
0
0
0
0
0
0
0
0
0
0
0
0
0
0
0
0
0
0
0
0
0
0
0
0
0
0
0
0
0
0
0
0
0
0
0
0
0
0
0
0
0
0
0
0
0
0
0
0
0
0
0
0
0
0
0
0
0
0
0
0
0
0
0
0
0
0
0
0
0
0
0
0
0
0
0
0
0
0
0
0
0
0
0
0
0
0
0
0
0
0
0
0
0
0
0
0
0
0
0
0
0
0
0
0
0
0
0
0
0
0
0
0
0
0
0
0
0
0
0
0
0
0
0
0
0
0
0
0
0
0
0
0
0
0
0
0
0
0
0
0
0
0
0
0
0
0
0
0
0
0
0
0
0
0
0
0
0
0
0
0
0
0
0
0
0
0
0
0
0
0
0
0
0
0
0
0
0
0
0
0
0
0
0
0
0
0
0
0
0
0
0
0
0
0
0
0
0
0
0
0
0
0
0
0
0
0
0
0
0
0
0
0
0
0
0
0
0
0
0
0
0
0
0
0
0
0
0
0
0
0
0
0
0
0
0
0
0
0
0
0
0
0
0
0
0
0
0
0
0
0
0
0
0
0
0
0
0
0
0
0
0
0
0
0
0
0
0
0
0
0
0
0
0
0
0
0
0
0
0
0
0
0
0
0
0
0
0
0
0
0
0
0
0
0
0
0
0
0
0
0
0
0
0
0
0
0
0
0
0
0
0
0
0
0
0
0
0
0
0
0
0
0
0
0
0
0
0
0
0
0
0
0
0
0
0
0
0
0
0
0
0
0
0
0
0
0
0
0
0
0
0
0
0
0
0
0
0
0
0
0
0
0
0
0
0
0
0
0
0
0
0
0
0
0
0
0
0
0
0
0
0
0
0
0
0
0
0
0
0
0
0
0
0
0
0
0
0
0
0
0
0
0
0
0
0
0
0
0
0
0
0
0
0
0
0
0
0
0
0
0
0
0
0
0
0
0
0
0
0
0
0
0
0
0
0
0
0
0
0
0
0
0
0
0
0
0
0
0
0
0
0
0
0
0
0
0
0
0
0
0
0
0
0
0
0
0
0
0
0
0
0
0
0
0
0
0
0
0
0
0
0
0
0
0
0
0
0
0
0
0
0
0
0
0
0
0
0
0
0
0
0
0
0
0
0
0
0
0
0
0
0
0
0
0
0
0
0
0
0
0
0
0
0
0
0
0
0
0
0
0
0
0
0
0
0
0
0
0
0
0
0
0
0
0
0
0
0
0
0
0
0
0
0
0
0
0
0
0
0
0
0
0
0
0
0
0
0
0
0
0
0
0
0
0
0
0
0
0
0
0
0
0
0
0
0
0
0
0
0
0
0
0
0
0
0
0
0
0
0
0
0
0
0
0
0
0
0
0
0
0
0
0
0
0
0
0
0
0
0
0
0
0
0
0
0
0
0
0
0
0
0
0
0
0
0
0
0
0
0
0
0
0
0
0
0
0
0
0
0
0
0
0
0
0
0
0
0
0
0
0
0
0
0
0
0
0
0
0
0
0
0
0
0
0
0
0
0
0
0
0
0
0
0
0
0
0
0
0
0
0
0
0
0
0
0
0
0
0
0
0
0
0
0
0
0
0
0
0
0
0
0
0
0
0
0
0
0
0
0
0
0
0
0
0
0
0
0
0
0
0
0
0
0
0
0
0
0
0
0
0
0
0
0
0
0
0
0
0
0
0
0
0
0
0
0
0
0
0
0
0
0
0
0
0
0
0
0
0
0
0
0
0
0
0
0
0
0
0
0
0
0
0
0
0
0
0
0
0
0
0
0
0
0
0
0
0
0
0
0
0
0
0
0
0
0
0
0
0
0
0
0
0
0
0
0
0
0
0
0
0
0
0
0
0
0
0
0
0
0
0
0
0
0
0
0
0
0
0
0
0
0
0
0
0
0
0
0
0
0
0
0
0
0
0
0
0
0
0
0
0
0
0
0
0
0
0
0
0
0
0
0
0
0
0
0
0
0
0
0
0
0
0
0
0
0
0
0
0
0
0
0
0
0
0
0
0
0
0
0
0
0
0
0
0
0
0
0
0
0
0
0
0
0
0
0
0
0
0
0
0
0
0
0
0
0
0
0
0
0
0
0
0
0
0
0
0
0
0
0
0
0
0
0
0
0
0
0
0
0
0
0
0
0
0
0
0
0
0
0
0
0
0
0
0
0
0
0
0
0
0
0
0
0
0
0
0
0
0
0
0
0
0
0
0
0
0
0
0
0
0
0
0
0
0
0
0
0
0
0
0
0
0
0
0
0
0
0
0
0
0
0
0
0
0
0
0
0
0
0
0
0
0
0
0
0
0
0
0
0
0
0
0
0
0
0
0
0
0
0
0
0
0
0
0
0
0
0
0
0
0
0
0
0
0
0
0
0
0
0
0
0
0
0
0
0
0
0
0
0
0
0
0
0
0
0
0
0
0
0
0
0
0
0
0
0
0
0
0
0
0
0
0
0
0
0
0
0
0
0
0
0
0
0
0
0
0
0
0
0
0
0
0
0
0
0
0
0
0
0
0
0
0
0
0
0
0
0
0
0
0
0
0
0
0
0
0
0
0
0
0
0
0
0
0
0
0
0
0
0
0
0
0
0
0
0
0
0
0
0
0
0
0
0
0
0
0
0
0
0
0
0
0
0
0
0
0
0
0
0
0
0
0
0
0
0
0
0
0
0
0
0
0
0
0
0
0
0
0
0
0
0
0
0
0
0
0
0
0
0
0
0
0
0
0
0
0
0
0
0
0
0
0
0
0
0
0
0
0
0
0
0
0
0
0
0
0
0
0
0
0
0
0
0
0
0
0
0
0
0
0
0
0
0
0
0
0
0
0
0
0
0
0
0
0
0
0
0
0
0
0
0
0
0
0
0
0
0
0
0
0
0
0
0
0
0
0
0
0
0
0
0
0
0
0
0
0
0
0
0
0
0
0
0
0
0
0
0
0
0
0
0
0
0
0
0
0
0
0
0
0
0
0
0
0
0
0
0
0
0
0
0
0
0
0
0
0
0
0
0
0
0
0
0
0
0
0
0
0
0
0
0
0
0
0
0
0
0
0
0
0
0
0
0
0
0
0
0
0
0
0
0
0
0
0
0
0
0
0
0
0
0
0
0
0
0
0
0
0
0
0
0
0
0
0
0
0
0
0
0
0
0
0
0
0
0
0
0
0
0
0
0
0
0
0
0
0
0
0
0
0
0
0
0
0
0
0
0
0
0
0
0
0
0
0
0
0
0
0
0
0
0
0
0
0
0
0
0
0
0
0
0
0
0
0
8.4555294e-39
1.6523969e-38
1.6192113e-36
7.6643396e-41
4.9740173e-44
1.5281497e-43
8.4553269e-39
1.7946062e-49
9.5008867e-49
4.9739043e-44
8.7599748e-56
2.7774481e-54
1.7945776e-49
-1.0647603e-50
1.6443942e-55
1.0647526e-50
-5.5363619e-48
2.4500659e-48
3.0756484e-48
-7.8652452e-43
1.406304e-43
6.4588851e-43
5.5282616e-39
6.2865692e-38
2.8120944e-42
2.1590572e-43
6.5126503e-43
1.6523098e-38
3.7057391e-45
6.5418713e-48
2.5379065e-47
3.6868878e-43
8.8667099e-53
2.7563881e-52
7.4915957e-48
1.1827608e-58
5.4287719e-57
9.1439e-53
-1.1979529e-48
3.6033746e-53
1.1979171e-48
-2.9676834e-46
8.7740708e-48
2.8924448e-46
-1.5083885e-41
4.3978991e-43
1.4784429e-41
2.3189811e-38
7.5131552e-37
4.9477567e-41
1.3548598e-47
5.9655209e-47
6.5119154e-43
2.799845e-49
5.9317671e-52
2.903092e-51
3.8924167e-47
3.5155417e-56
1.1643491e-55
8.6866394e-52
3.9987675e-62
2.6194506e-60
4.0581529e-56
-4.4859402e-50
5.9756557e-54
4.4889451e-50
-1.0792392e-47
4.9256086e-49
1.9029032e-47
-1.4926837e-43
1.3707431e-44
5.7584809e-43
1.5396472e-41
1.9468918e-38
8.2158172e-43
1.6989888e-51
9.9482786e-51
5.9643524e-47
3.7251558e-53
8.6679411e-40
5.2930622e-39
1.8157702e-37
1.1103596e-41
7.0903654e-40
2.7818324e-38
9.8774446e-47
1.9615977e-42
4.0130199e-41
-8.3416175e-52
3.1634024e-47
6.7141264e-47
-2.1329825e-47
7.8672988e-51
2.1813686e-47
-1.6241218e-46
3.0026568e-46
1.2612266e-44
3.0822301e-43
1.2154023e-41
1.9912696e-46
2.4924681e-54
2.6249054e-54
9.9431535e-51
7.6634181e-57
1.3265128e-40
1.2999731e-40
2.6853454e-38
1.4321277e-42
1.114167e-41
3.3273746e-39
8.2512095e-46
2.8995016e-42
8.769794e-41
-4.8930238e-52
4.5582928e-47
1.4882836e-45
-1.8136604e-53
5.8482595e-53
3.2472166e-51
-6.1123438e-48
1.4542232e-49
3.0623258e-46
1.0067047e-46
3.0811621e-43
1.7206996e-50
2.5715005e-54
9.9981762e-58
5.2402925e-56
2.1976834e-60
5.0887164e-42
1.0336508e-42
7.5311152e-40
4.2290655e-44
5.2461046e-44
7.7665053e-41
1.7324065e-46
1.498362e-44
8.4103837e-42
-6.0404989e-55
7.9194269e-48
2.7266464e-46
-1.0033997e-53
1.8006977e-56
6.7783978e-53
-4.1423676e-51
8.2659237e-53
1.49472e-49
3.7707673e-50
1.0062862e-46
2.0807467e-54
9.9139736e-58
4.959215e-61
7.9235509e-60
8.0036805e-64
1.1307464e-44
9.7810466e-46
1.7935974e-42
6.2278273e-46
2.2785195e-46
5.830753e-43
7.2771379e-49
1.6776117e-47
4.855401e-44
-3.6654698e-59
3.4413645e-49
1.0393488e-47
-3.2981864e-57
4.34048e-58
2.0312428e-57
-1.6020095e-54
1.0754063e-58
8.4257841e-53
8.3074691e-56
3.7706791e-50
-8.0264649e-55
4.9212767e-61
3.389386e-63
6.1786314e-67
6.5498639e-64
5.2284257e-48
9.4248749e-46
3.0422029e-47
2.4406536e-49
2.2639112e-46
6.4451822e-48
2.4366741e-52
1.6611992e-47
4.0794649e-49
-1.6922915e-59
4.3600214e-49
1.0658127e-50
-5.3640462e-60
4.2199088e-58
1.7977412e-61
-5.5951828e-60
5.8549146e-59
4.9222624e-59
7.7013896e-56
-1.0273052e-59
6.3166848e-57
2.7320533e-29
3.1707702e-29
1.6871057e-27
5.6909724e-31
1.6332766e-28
2.5358253e-28
2.346403e-26
1.2806897e-25
3.1711851e-25
3.3006529e-23
5.3528084e-25
8.6340701e-24
1.2269214e-21
-1.9729331e-53
2.287078e-25
3.0478902e-23
-2.5792113e-48
1.629083e-52
5.6581007e-48
-2.0336334e-43
8.5703773e-48
8.492407e-43
1.9059501e-43
6.2865297e-38
1.2882851e-45
2.8561002e-34
4.9782453e-34
3.1706896e-29
2.1874272e-35
6.3046952e-30
1.174283e-29
8.5132031e-28
2.2095819e-27
2.3972532e-29
5.2834841e-25
5.6401087e-27
5.1768974e-28
1.3497134e-23
-3.8285146e-51
1.7266439e-29
4.4845631e-25
-2.4769208e-46
2.9389466e-50
5.3690679e-46
-6.8036132e-42
1.0429452e-45
2.158676e-41
2.0169334e-41
7.5128656e-37
2.2205348e-42
1.659362e-27
7.6340405e-27
4.2171012e-25
1.5788404e-28
1.823652e-31
6.4020514e-29
3.2613514e-27
5.3796573e-32
0
2.4101188e-29
2.0171938e-31
7.2948851e-32
5.1746887e-28
-1.1373305e-51
2.3941632e-33
1.7465764e-29
-3.2448971e-47
1.1867579e-50
5.1486977e-47
-2.7531572e-43
1.5631884e-46
8.5205714e-43
8.4165243e-39
1.099101e-38
8.1276946e-41
1.2755505e-28
4.2057637e-29
3.2476198e-26
4.9368132e-31
1.2168352e-32
1.1180501e-30
3.4137729e-28
2.8269733e-35
1.0452244e-35
1.2503071e-32
2.6142773e-35
1.5915426e-35
7.2935062e-32
-2.7534069e-37
5.2386972e-37
2.4200582e-33
-6.5932303e-38
2.4824501e-36
1.2648528e-34
-6.2488412e-34
6.0405677e-34
2.0761415e-35
5.4232109e-32
1.0961429e-30
3.1555175e-34
2.7703673e-31
1.0341307e-32
7.5056484e-29
2.3384725e-32
2.7905166e-34
3.4652447e-34
2.1570322e-30
4.45252e-38
8.7429311e-36
2.929795e-34
5.8283015e-40
2.5218212e-40
1.5959286e-35
-1.8120259e-39
4.9634052e-41
5.2621494e-37
-2.6939135e-36
1.5544367e-36
5.036466e-35
-2.6897481e-32
2.4804529e-33
9.5277499e-32
2.0177172e-31
8.2018931e-30
2.204933e-34
3.0284654e-36
3.623336e-36
1.0330667e-32
3.9835572e-36
9.1179847e-38
2.2631764e-37
3.4923684e-34
1.5425799e-38
7.3413701e-39
8.3471334e-36
1.8664529e-42
3.4969602e-40
3.7640413e-38
-2.719514e-41
6.915792e-41
5.9779314e-39
-6.9651645e-37
3.284233e-37
8.0786947e-36
-3.2875524e-33
1.083017e-34
1.5969387e-32
2.9956163e-33
1.0183241e-30
7.8361055e-37
1.2479248e-39
1.6468111e-39
3.6191776e-36
1.263749e-39
6.8556635e-41
1.4809408e-40
2.2735182e-37
1.2017097e-41
3.0672056e-42
6.3732034e-39
1.8925891e-43
2.63782e-42
1.7889161e-39
-5.7309226e-42
9.3898001e-42
3.5288814e-40
-3.5558933e-38
4.9345054e-39
7.0035178e-37
-2.5121982e-35
9.8223437e-38
2.8019333e-34
2.0473014e-36
7.8264676e-33
2.6957141e-40
6.5766241e-43
1.6057149e-39
4.9843501e-43
3.9940139e-41
6.1212026e-44
1.4507093e-40
3.6212931e-42
1.0401082e-44
3.0390378e-42
7.9576394e-44
3.3425525e-45
8.5332213e-42
1.6800563e-43
-8.0089606e-42
3.1380244e-41
7.1120232e-43
-2.6364728e-41
6.5916767e-39
1.4672575e-40
-5.3960983e-39
1.0245656e-37
2.2661495e-39
2.0038908e-36
4.377877e-44
4.101681e-38
4.3656414e-30
3.2295395e-28
5.6751328e-28
7.8540409e-28
1.2442617e-26
1.3732947e-26
9.2500704e-25
4.9130326e-24
9.5171245e-24
1.0797467e-21
3.9083077e-23
3.214197e-22
2.640797e-20
0
4.2577554e-24
3.4966418e-22
-2.3984785e-19
2.5621015e-21
2.347118e-19
-9.2151075e-20
3.8338679e-19
5.2256616e-17
3.7797493e-21
5.5434776e-19
-1.4821028e-38
0
2.3389562e-24
1.9847854e-22
7.1283471e-24
1.4898167e-27
5.4498943e-27
2.3670596e-25
7.5779805e-26
1.1635251e-27
1.7731393e-23
3.1623095e-25
0
4.349906e-22
-5.9678922e-26
0
7.9584113e-24
-7.5060249e-22
0
2.4436853e-21
-2.3536913e-23
9.2222572e-24
3.3224526e-19
8.3716705e-26
3.7561247e-21
3.9667665e-27
4.7033028e-29
4.3950369e-26
2.6351952e-24
5.9697717e-25
7.0869115e-29
2.1058024e-29
2.094768e-26
4.3900608e-28
1.2325727e-29
2.0878815e-25
5.6097185e-30
0
2.5722575e-26
-1.6793197e-27
0
6.1534596e-27
-1.9991506e-26
0
1.8576149e-24
-8.5056198e-31
9.9268038e-28
9.2012739e-24
8.1895835e-41
8.3715799e-26
5.2521718e-32
1.9802148e-28
7.424727e-29
1.1708672e-25
7.7304272e-29
2.9314321e-30
7.011315e-31
8.3909248e-28
2.2458171e-30
1.1564532e-31
1.1353399e-27
2.3199571e-33
0
5.6607962e-29
-8.3176674e-32
1.596196e-34
1.5083284e-30
-2.2790235e-30
4.7739395e-32
2.5094714e-28
-3.0697457e-33
7.1959184e-33
9.9039726e-28
2.9046804e-31
1.6938043e-30
2.1504393e-32
1.2577652e-31
0
3.1071377e-28
4.0009771e-31
5.5707874e-34
1.501395e-34
3.7973073e-30
3.4021652e-35
2.2443502e-35
1.1648525e-31
4.8630998e-36
3.2444154e-36
1.6677387e-32
-1.7385055e-36
3.2934854e-39
1.6730328e-34
-5.5663121e-34
1.2824745e-38
4.8369316e-32
-1.2076639e-31
4.736639e-32
4.8643836e-30
1.7333297e-30
9.256707e-29
1.9888351e-32
4.8446874e-36
5.6887411e-35
2.4737306e-31
2.8220628e-34
1.1825904e-37
2.7856968e-38
5.0634883e-34
1.8710875e-38
3.7429269e-39
3.0897924e-35
2.6967723e-40
9.9775943e-42
3.3497543e-36
-6.1253276e-40
4.0077289e-39
3.8572011e-37
-3.8677074e-36
3.6675905e-38
1.4270123e-35
-2.463258e-32
1.0236734e-34
1.4912546e-31
2.1816297e-32
1.0496756e-29
9.061122e-35
6.4433562e-37
1.5086453e-36
4.5998692e-33
4.9807606e-36
6.2514152e-41
3.6704074e-38
2.8312914e-36
1.2658405e-41
1.7006202e-42
1.0169553e-38
6.0787208e-42
8.6019854e-41
9.4575546e-39
-3.5919574e-41
3.2695998e-41
1.4447598e-38
-4.116162e-38
4.8351955e-38
1.5653488e-36
-1.821383e-34
2.159297e-37
1.1326242e-33
1.2929886e-35
7.3531987e-32
6.1814525e-38
1.0671828e-38
1.7950368e-35
1.8011281e-38
3.7391402e-37
5.6747097e-42
1.7418219e-37
4.9373799e-39
2.8822559e-44
1.056477e-41
2.308007e-43
2.3012495e-43
3.8979943e-40
6.3808219e-42
-2.2860652e-40
5.2744426e-40
1.0230164e-41
-2.60361e-40
1.3143654e-37
3.9216939e-39
-3.7543093e-38
3.5162631e-37
5.4679881e-39
1.4694045e-35
1.5255126e-41
2.3435557e-37
4.5345266e-30
1.4089638e-29
5.4062373e-28
1.3640496e-30
1.0079907e-29
2.4731153e-29
9.2496989e-25
1.4698524e-23
4.2711966e-23
4.4208632e-21
1.0982253e-22
4.6562118e-22
5.7858362e-20
3.1774227e-26
2.4562617e-25
3.6751127e-22
-2.1836872e-19
1.7833557e-24
4.5299056e-19
-5.0235323e-21
1.903531e-18
1.1735e-16
2.7403195e-21
1.1214609e-18
-1.4425645e-22
5.0208142e-23
6.2205744e-22
1.8304258e-20
6.6840198e-23
7.0313372e-28
3.7520772e-27
5.0440692e-23
7.4437565e-25
3.5104974e-26
1.5150194e-22
4.9218372e-24
4.5243662e-25
2.1016262e-21
3.4798149e-26
8.1060993e-25
8.8856635e-23
-1.3573862e-21
7.5090899e-24
8.2663852e-22
1.1255094e-21
7.3181317e-23
4.6940796e-18
3.5723074e-23
1.109181e-18
7.2150606e-24
2.2252753e-26
4.3853593e-25
6.3747768e-22
1.0073915e-22
1.2082111e-27
5.4791913e-27
3.7151198e-25
2.3846557e-26
1.3712408e-27
5.5130593e-24
8.0019546e-26
3.5687251e-27
6.3365163e-23
-2.0902725e-30
4.3274899e-29
1.7453462e-24
-2.0750977e-25
7.3953624e-30
9.5762366e-24
-1.6149339e-23
6.2983235e-27
9.8387366e-23
4.963039e-25
1.8939178e-20
2.1815687e-26
1.8642019e-26
1.1163157e-27
8.0475133e-24
2.6155576e-27
9.1677023e-29
2.6005024e-28
6.3046914e-26
8.2114671e-29
3.0665704e-30
3.4206243e-26
7.1589709e-29
5.8261644e-30
7.2162361e-26
-3.8796783e-31
0
1.2034939e-27
-1.9245917e-30
1.0050284e-29
2.1973885e-27
-6.2751722e-28
1.0304356e-29
8.9987221e-27
0
4.9544688e-25
2.3210902e-28
1.7827629e-28
4.8477814e-30
9.3054332e-26
1.8775101e-29
4.6517158e-32
1.3490356e-31
1.0361077e-27
7.136728e-33
7.8381094e-34
3.2227353e-30
5.2929346e-33
1.2736029e-33
5.8452219e-30
-2.2325422e-33
3.6299087e-35
2.8833841e-31
-2.3560267e-31
3.6857039e-32
5.9545138e-29
-2.4358352e-30
8.7449893e-30
1.049317e-27
5.387591e-29
7.3377987e-27
3.818142e-30
2.4738172e-32
0
9.1837661e-29
2.2391512e-31
1.3875576e-35
1.3364422e-34
3.5697528e-31
1.8160234e-36
2.8997165e-36
8.6782498e-34
1.0539379e-36
3.4635324e-39
1.2785289e-33
-3.3309278e-36
4.6683541e-41
4.1125718e-35
-1.819857e-32
0
4.3989738e-31
-4.1836555e-31
5.880252e-32
6.6327039e-29
1.2281602e-31
2.8078288e-28
1.4700948e-32
6.5191641e-36
0
1.2818504e-31
4.0627892e-34
1.9593707e-37
7.2077544e-39
1.4396788e-34
3.4549203e-37
2.0158222e-36
1.0605301e-34
2.0972485e-41
5.0618183e-39
7.2835585e-37
-1.8627679e-39
7.4240234e-41
1.6010097e-38
-1.1099857e-34
0
7.9076681e-34
-7.2217355e-34
3.5413249e-35
2.0419954e-31
4.1463955e-35
4.4131764e-31
5.9655142e-36
1.122758e-38
4.0474335e-34
1.151713e-36
1.1134534e-35
3.9099416e-39
1.1634468e-36
3.4046217e-38
5.111442e-39
1.2216799e-36
3.7526696e-38
3.4919791e-42
6.0012864e-38
1.2916358e-39
-6.4922529e-42
1.2792135e-39
2.7025298e-41
-2.8671944e-38
1.2949656e-37
2.8073392e-39
-1.3346069e-37
3.5670787e-35
5.381631e-37
5.5490634e-35
8.1536104e-40
8.5711154e-37
1.6878156e-18
-2.1914707e-19
1.3466337e-16
7.7404609e-19
0
1.2292619e-19
3.3794126e-17
4.3684239e-23
8.7488701e-23
6.0277207e-21
4.4827146e-25
5.5113953e-25
5.7896443e-20
-1.0250026e-17
5.4558914e-23
1.0250251e-17
-3.0972883e-17
1.5569989e-18
1.7137014e-15
-8.3387879e-19
-1.9941321e-18
1.045906e-16
-2.496504e-20
6.8280169e-19
-8.3256207e-22
6.8286053e-23
2.0797149e-28
6.1633247e-22
-2.0159728e-19
7.2707088e-22
0
1.0807393e-19
4.9433052e-23
5.9705138e-23
1.1232731e-20
4.8276772e-25
9.0992226e-25
2.2201902e-21
6.3949007e-25
2.1862004e-25
1.0561295e-22
0
0
1.5577888e-18
1.3732667e-20
0
6.1444317e-17
1.4741205e-20
6.203755e-18
0
1.5405437e-25
2.5233667e-23
5.4805739e-22
0
4.52424e-26
2.611506e-26
8.9746834e-24
6.9554324e-25
1.7604593e-27
1.5792299e-22
6.1036413e-25
1.796142e-24
1.2995269e-22
6.0797925e-26
8.4606512e-26
1.1289969e-23
5.0668917e-23
2.7798772e-22
6.8295566e-20
0
2.1989717e-25
1.0142328e-20
5.1234674e-24
3.181853e-19
4.7083968e-25
1.0307683e-24
5.9027577e-25
1.615227e-22
-2.757157e-26
1.0173674e-27
2.752633e-26
2.8339364e-24
7.4107733e-28
0
2.2922375e-25
1.8558964e-26
2.0465042e-27
8.1700824e-24
1.1561393e-27
2.7831792e-28
7.9081377e-25
1.068175e-25
1.2251531e-26
1.9355515e-22
4.8979049e-30
2.4804044e-28
3.3955335e-25
1.6156142e-27
6.0007148e-24
2.565361e-27
3.3124541e-26
5.4501605e-27
6.8955954e-24
-4.5418815e-27
6.9987433e-30
6.7810648e-29
1.2192177e-25
1.1743472e-30
0
4.2320896e-28
2.8372045e-29
1.5708973e-30
1.7285418e-26
2.6372876e-31
0
7.3428243e-28
-7.0160009e-31
3.2480972e-32
1.2317732e-26
-9.7857149e-29
2.884838e-28
4.3083937e-26
2.1775865e-27
3.7439e-25
2.3637305e-28
1.9058124e-29
3.2796631e-30
2.0267323e-26
-3.5612628e-29
3.4577424e-33
2.4572813e-32
1.5379872e-28
3.5509425e-34
0
2.2358384e-31
2.2454173e-33
3.7108231e-34
1.5703836e-30
3.6671554e-35
0
9.1318519e-32
-1.1057475e-31
4.5558705e-32
6.8445175e-30
-5.1436669e-30
1.0609817e-30
2.046787e-27
2.8788643e-30
1.1520862e-26
3.7984535e-31
5.0106852e-34
1.4812503e-33
3.407554e-30
6.4777197e-35
7.8633368e-37
1.3446109e-35
2.5329373e-32
5.4577804e-37
0
1.3925323e-34
4.6947968e-37
3.122649e-38
3.7198609e-34
1.1475e-38
8.7836425e-39
6.3998156e-35
-6.3615492e-34
1.92165e-35
1.2401052e-31
-6.3169097e-33
4.795305e-34
3.7475616e-30
1.0704184e-33
1.1122376e-29
3.8815616e-34
1.165741e-37
1.844055e-33
1.3075941e-36
4.5821728e-35
1.9168791e-39
1.4638494e-35
1.5678961e-37
1.6198026e-39
5.3920951e-37
1.6318871e-38
3.2328031e-41
9.2828358e-38
1.3299279e-39
-5.7280964e-41
1.011699e-38
1.112672e-40
-1.5168075e-37
1.9350407e-35
2.1188318e-37
-7.1534687e-37
5.1068786e-34
6.2148596e-36
1.1166701e-33
4.0071644e-38
1.2406778e-35
0
0
5.5135594e-16
9.0872204e-17
7.1893307e-20
9.8306389e-19
8.9487744e-17
7.3500832e-20
9.1783473e-23
2.9446787e-21
1.0248319e-18
7.5777741e-20
8.5213389e-17
-1.7749321e-18
-1.1656607e-20
3.3311978e-15
-1.7815994e-18
2.8034131e-16
3.2039765e-15
-4.9527721e-18
-2.8042221e-18
2.4984962e-17
-5.6831377e-20
1.3759853e-16
1.0303e-18
2.8082756e-22
0
2.1726837e-19
-2.1807345e-19
1.8834157e-20
0
7.1592401e-19
1.4226968e-21
2.3303822e-22
1.4041512e-20
1.1584828e-20
0
3.4752012e-18
0
-6.9452953e-25
3.1403223e-23
2.8753762e-18
0
8.7501319e-16
2.6621927e-20
9.4396111e-20
1.5597138e-16
0
1.145278e-17
0
1.1290128e-22
1.9936972e-22
5.2380088e-21
-4.1901654e-23
4.9767754e-24
1.5394824e-24
4.8340162e-22
4.5676926e-24
1.7919127e-25
4.9267155e-22
5.6882958e-26
9.0336311e-26
1.0752718e-22
0
-2.1234149e-26
4.5373243e-24
4.9473797e-20
5.2451503e-22
1.151678e-17
0
0
1.5217985e-19
1.9621139e-23
1.1637621e-18
0
5.528489e-23
7.8958789e-23
2.8636024e-21
-8.5936545e-24
6.7049327e-26
9.9535167e-25
1.5827381e-22
1.405021e-26
0
3.2637881e-24
9.475038e-26
1.1972483e-25
1.5579618e-23
3.5746073e-28
-4.3190086e-28
9.6753072e-25
2.5625884e-24
1.7558808e-25
7.150208e-22
3.524856e-27
3.2724704e-27
6.0606287e-24
1.4136137e-26
2.8838326e-23
2.4152106e-26
5.1627095e-24
1.9517643e-24
3.4844924e-22
-7.842657e-24
1.5546121e-27
1.2822373e-26
1.0552176e-23
3.7463473e-29
0
9.920996e-27
3.2270846e-27
3.0301729e-28
8.817986e-25
4.5289342e-29
-2.1149213e-32
2.4294136e-26
4.3234115e-28
2.2007471e-29
1.8751084e-25
6.6635084e-28
3.1938931e-27
6.0057557e-25
4.7733939e-26
8.9378655e-24
4.7870509e-27
2.0787931e-27
7.9855038e-28
4.5384101e-24
-2.7105662e-25
3.3850501e-31
3.0301082e-30
1.6111679e-26
6.5886509e-32
2.7763932e-33
1.9779058e-29
1.8762426e-30
8.9851027e-32
8.4736293e-28
1.7574911e-31
0
2.613382e-28
3.7721699e-32
3.9726463e-33
2.945442e-29
2.2361779e-29
6.8177061e-30
2.1690292e-26
3.6410403e-29
2.1626869e-25
5.5646809e-30
1.6938793e-31
1.1432617e-30
1.5184024e-27
-7.1225018e-28
2.6396627e-34
1.4211995e-33
3.2234426e-30
9.7023363e-36
8.3782762e-37
3.170944e-33
1.7254878e-34
2.290122e-35
9.0056819e-32
5.4825852e-35
3.6185966e-36
3.5591775e-32
1.0214005e-33
4.0191732e-33
5.1773641e-31
5.9933828e-32
7.6545683e-33
7.330492e-29
2.5357342e-32
2.2721456e-28
9.9328121e-33
1.1282124e-34
1.3131185e-30
-3.96167e-31
2.2952216e-31
8.715511e-38
1.4746827e-33
7.3206035e-35
4.650711e-39
1.507144e-36
2.9379727e-38
3.7933981e-38
2.2749954e-35
2.2225022e-37
3.8364076e-39
3.6397295e-36
2.6342109e-38
3.4411982e-36
3.7909338e-33
3.7149329e-35
4.8136632e-36
8.1067475e-33
7.5143966e-35
2.6250257e-32
1.4585539e-36
2.6857718e-34
-4.4713662e-18
0
1.4256793e-15
1.3158386e-16
1.0268611e-18
0
3.6559878e-17
1.0301771e-18
-5.2503467e-25
1.3004656e-21
-1.0331434e-17
4.9386259e-18
2.1017861e-16
-1.7275245e-15
-8.4430197e-20
2.5207487e-14
-3.2814523e-17
-4.1296043e-16
2.1087087e-15
-3.0744998e-18
-6.1881131e-18
1.1187348e-19
-2.1876762e-18
6.8900453e-17
0
0
-1.9739137e-20
3.1620317e-16
0
6.9813161e-21
-8.3752009e-22
4.7459693e-19
2.2103452e-20
3.9660684e-24
5.5581428e-22
8.8389799e-19
3.2490874e-19
8.4229537e-17
0
-3.7623264e-27
7.9949926e-19
-3.2856671e-18
-1.1475354e-17
2.7132421e-15
-5.941197e-19
-2.0265679e-18
1.2992431e-16
-1.3409359e-19
1.1346765e-17
0
3.4900915e-24
5.3039335e-22
3.9297551e-19
-4.0471522e-19
5.4112206e-23
3.4366707e-24
2.8541516e-21
9.1008311e-23
1.1709276e-22
8.2947208e-21
2.7688265e-23
2.0738348e-23
3.250589e-19
9.5538896e-28
-1.9996647e-28
3.2210708e-23
4.6864699e-23
0
4.1378618e-20
-7.9437106e-21
-1.5719627e-23
1.6275037e-19
-3.2575124e-23
1.2181126e-18
-3.8439915e-23
1.8688429e-22
2.9294823e-22
1.5075772e-20
0
2.0804269e-24
3.3137067e-24
9.8159011e-22
6.3282106e-25
1.7405288e-26
1.7007434e-22
9.1895785e-28
2.5470603e-27
3.6937375e-23
0
-1.6604564e-29
9.5807678e-25
6.9436409e-24
5.0464394e-24
1.2272126e-21
-1.2059911e-27
-1.4793889e-26
5.1244533e-25
-2.6976438e-25
4.4423624e-25
-6.7041544e-25
2.5349457e-23
5.6323688e-24
1.6394343e-21
-3.1353749e-23
2.8611558e-26
3.6629917e-26
6.2654023e-23
6.0067081e-27
7.7909858e-29
1.6620051e-24
6.03996e-27
1.5913878e-26
1.4384532e-24
1.6690505e-28
1.4418932e-28
2.0158826e-26
2.4109946e-26
3.1504587e-28
4.4516773e-24
-5.0977481e-26
-5.8333014e-29
3.8184482e-24
-2.8836747e-27
9.6508486e-23
-9.4471902e-27
3.5356256e-26
2.2177683e-26
3.4832411e-23
-6.6502782e-24
2.1906683e-29
1.0790565e-29
9.6323165e-26
9.947559e-30
4.69017e-31
3.7771275e-27
7.6681376e-29
2.4533173e-30
1.7106657e-26
1.8440388e-30
3.4210754e-31
1.0583654e-27
1.0835391e-30
1.4017496e-32
3.4829035e-28
3.1106132e-29
1.4989693e-29
1.4156663e-25
6.1946297e-30
1.1672419e-24
-4.1549118e-29
1.7222882e-29
6.7693109e-29
1.9509117e-25
-1.2003269e-25
4.836096e-33
1.0761671e-32
3.1234691e-29
1.0924426e-33
1.4549903e-34
4.7600965e-31
7.3277354e-32
4.6792877e-33
3.5379246e-29
2.0752668e-32
2.1858987e-33
7.715428e-30
1.0377236e-32
1.8792199e-32
3.4119803e-30
2.5701845e-31
4.049378e-31
5.2132438e-28
0
2.3353208e-28
-3.8010457e-32
2.6152066e-32
1.8410798e-28
-3.2104615e-28
2.0592386e-28
3.4069534e-36
3.7690235e-32
9.0754192e-34
3.0433436e-37
1.489434e-34
2.6692113e-36
1.3929471e-35
4.663992e-33
4.0119665e-35
6.6438957e-34
1.3190352e-31
1.8235537e-33
1.0912891e-34
3.8457222e-32
5.0240394e-34
5.5593401e-32
4.0757505e-29
4.2909246e-31
1.4921829e-31
-1.5449301e-36
5.7519115e-34
-1.00469e-16
-8.5263102e-16
2.168129e-15
1.4428647e-15
0
-5.7872737e-19
1.8275598e-17
8.7216671e-19
-5.7654105e-22
4.0109877e-19
9.3813349e-18
1.9722327e-18
3.5057525e-17
-2.0967521e-15
5.8036502e-15
2.8198386e-14
-2.8283188e-20
-7.2677427e-16
2.1063365e-15
-1.7643417e-19
-1.166786e-18
1.0544314e-19
-1.9805326e-19
3.4331831e-18
3.3680042e-20
4.6420182e-17
1.3443612e-18
2.824221e-15
-2.799393e-15
6.3793019e-19
0
3.4755416e-17
6.3737021e-19
-6.9141311e-24
2.2013645e-21
5.24164e-18
3.8905778e-18
1.2164462e-16
-1.4314425e-16
1.0291109e-15
4.0025248e-14
-3.5613526e-17
-1.6934777e-19
2.6856928e-15
-6.8549359e-19
-1.0171062e-18
1.7220649e-17
-2.1071133e-19
8.7567856e-18
-2.11415e-20
3.7051856e-24
3.3236731e-21
2.4018168e-17
-2.2280634e-17
1.6724342e-22
0
5.3412684e-21
9.2946214e-21
1.1317656e-24
7.2973659e-22
6.2471105e-20
0
3.4969548e-17
7.8163072e-20
1.1248112e-18
1.0279704e-15
-5.0375378e-20
-9.6087435e-24
5.8288182e-22
-5.0983631e-20
-4.3689843e-24
5.3667723e-18
-5.4887508e-23
6.293707e-19
-4.0796018e-22
0
9.7283166e-20
8.5238059e-19
-9.2995556e-19
2.2944747e-23
4.7996094e-23
1.9408824e-21
1.1405054e-23
1.1116707e-23
1.6753625e-21
2.5055529e-23
1.1314586e-22
1.9970139e-19
4.8727622e-23
1.2008488e-21
1.1235877e-18
6.7000036e-27
-1.2318476e-25
1.2696074e-21
-8.5548981e-27
-1.1354452e-24
5.3622163e-25
-1.4786335e-23
5.2195849e-25
-3.6939041e-23
3.7157845e-21
8.4378276e-21
1.7487798e-19
0
1.0830998e-24
1.1790542e-22
5.2227367e-21
-3.6406969e-28
3.3848746e-27
9.0106591e-24
-2.3541889e-28
2.0692446e-31
1.1457962e-22
9.1301325e-26
6.9488136e-26
1.2007199e-21
3.3426446e-26
-6.3898068e-28
4.7275009e-24
-7.6388271e-24
-2.917631e-26
4.1701088e-23
-3.7468841e-25
1.1880107e-21
-7.6642556e-25
4.3634937e-22
7.4338367e-23
1.368664e-20
-1.4109685e-22
2.587401e-25
3.5311915e-24
7.2235934e-22
-9.1289339e-30
5.399517e-27
2.2695881e-25
-1.209791e-30
8.137758e-29
7.753218e-27
8.1283578e-29
4.5992266e-30
7.0469028e-26
4.4027469e-29
0
7.1974562e-27
-2.8874415e-26
-2.7119297e-27
5.2818966e-25
-2.3518981e-28
3.7492176e-24
-1.6322738e-27
5.9457122e-25
2.5582233e-26
9.3436734e-23
-5.1121704e-24
1.4731423e-27
7.5285353e-28
3.4165011e-24
-2.7895659e-31
3.9560384e-30
4.7133646e-27
-1.1264557e-33
7.8641805e-32
1.399901e-28
7.0353145e-32
6.9738082e-33
1.2307748e-29
4.3046997e-31
1.0927291e-33
3.6108725e-29
-4.9255576e-33
-1.5258812e-29
8.4079252e-26
-7.70974e-33
1.1796724e-30
-1.928892e-30
1.8705101e-29
4.2829582e-26
-1.9072462e-26
2.1112472e-27
1.2402999e-31
7.4490059e-28
2.6582921e-29
-3.7742126e-33
2.2442111e-30
5.1169318e-32
-2.1191556e-35
1.7568525e-30
4.2722955e-32
1.7232577e-33
1.8767845e-31
9.6398315e-33
1.1407087e-33
2.1299972e-31
1.4140378e-33
-1.0182621e-33
3.9085887e-29
-2.1744874e-33
1.0040293e-30
-2.5304711e-33
-8.0293789e-34
-5.1332276e-17
-4.5635976e-16
1.1707629e-15
0
-3.8672522e-19
0
2.2829017e-16
1.6215778e-20
0
6.9375064e-20
3.5035411e-17
-3.7605979e-20
1.4843308e-19
-2.2081333e-15
1.8834093e-14
1.8297771e-14
-4.1702648e-16
-7.8939688e-16
2.7575428e-15
-1.2006615e-21
-9.5233863e-18
1.6856767e-15
-1.1952546e-19
3.3311612e-18
-3.8458161e-23
-7.0136491e-18
-3.0221556e-16
1.5671364e-15
0
2.8739683e-20
0
1.5134831e-17
2.8941731e-20
-1.1073058e-21
4.6034493e-21
9.3323598e-17
3.4074914e-19
2.3049112e-18
-9.9071745e-16
1.2505273e-14
5.5007406e-14
-8.6856723e-18
-1.1261556e-19
2.2209253e-15
-2.6738493e-20
-1.1864266e-18
9.6109108e-20
-4.2248725e-20
1.9773751e-18
0
8.0827936e-20
2.0822511e-17
1.0741819e-15
-3.4633343e-15
0
-1.7357647e-23
8.5696416e-20
1.0067408e-19
-1.5005204e-21
9.0713358e-20
-2.2512715e-18
1.1203034e-18
3.4404974e-17
-5.7165695e-21
9.2999488e-16
3.8704999e-14
-1.3231669e-19
-2.9909716e-22
1.5051525e-20
-1.4245802e-20
-3.9882031e-22
6.2350402e-18
-4.9023677e-21
1.6332615e-19
-1.8040152e-21
0
8.3697473e-20
6.1965231e-18
0
4.683339e-23
-4.1681339e-22
4.8365449e-21
-2.2341914e-20
-1.0228201e-22
4.9569049e-20
-9.7978616e-20
2.4685157e-19
9.5529006e-18
9.8247102e-19
3.270964e-18
9.2677096e-16
2.0223581e-23
-1.3867055e-23
9.8343983e-19
-2.3328504e-22
-1.4362271e-22
2.0522681e-24
-8.5352008e-22
1.2630255e-20
-2.0762862e-22
8.4326026e-21
0
2.8108327e-19
0
1.8043289e-23
-2.5098619e-23
1.1772908e-20
-7.4706348e-24
-6.4296933e-27
5.0316058e-21
-6.4033301e-22
9.8980893e-23
2.4750086e-19
1.7909423e-21
1.4693263e-20
3.2550521e-18
6.3045077e-24
-1.180832e-25
1.1389776e-21
-1.1821059e-22
-2.2580065e-24
2.8030829e-21
-3.7525886e-24
1.4044323e-20
-3.3996941e-24
5.1621483e-22
4.9336805e-23
1.7755812e-20
-5.303625e-23
5.9842004e-24
-3.4132117e-26
1.1340492e-21
-8.3476544e-27
-2.2516499e-31
6.2129977e-24
-1.4637376e-24
3.5187717e-26
1.0040902e-22
4.466261e-24
5.9264923e-24
1.4681487e-20
6.3734828e-26
4.9352665e-28
1.0191358e-23
-9.210477e-29
-1.6971713e-26
3.7053092e-24
-5.127754e-31
9.4717779e-27
-1.2931411e-26
6.434859e-25
1.4992564e-26
1.648735e-22
-4.2320185e-23
8.063489e-27
0
2.5605357e-24
-3.8454401e-30
5.078672e-31
1.2779257e-26
-2.8249148e-27
2.0600671e-30
3.8146872e-26
4.8234993e-27
1.3582582e-27
5.9175073e-24
1.546433e-27
9.2119851e-28
1.0902329e-25
-1.4054379e-32
-3.5555797e-29
1.5165268e-25
-2.0159043e-31
3.613697e-30
-8.8629016e-32
3.160146e-29
4.1769816e-25
-8.8514724e-25
2.0383744e-26
1.2300156e-33
9.9042379e-28
1.5769031e-29
-1.6897283e-33
1.1827884e-30
1.6824807e-32
-4.8831981e-30
8.736959e-30
5.0681292e-33
1.7135647e-29
1.2979936e-27
3.905363e-29
1.5291592e-31
9.3843839e-28
1.3232749e-31
-4.9369937e-33
3.8248806e-30
-1.2135299e-32
7.4573259e-30
-3.8205822e-32
-3.7023935e-32
1.3141528e-16
-1.8542962e-16
2.5854126e-16
-2.7137878e-16
-7.4164225e-22
6.2298651e-18
2.7627525e-16
6.840208e-20
-1.6620862e-22
1.4080352e-21
5.4579833e-16
-2.5925674e-21
3.6371666e-16
-1.9585217e-15
1.3309103e-14
1.4180389e-14
-5.879468e-16
-6.8472487e-16
2.6858105e-15
1.0851867e-16
-1.3548081e-16
5.5196971e-15
-1.6527434e-18
2.1069335e-14
0
1.6087561e-18
-1.2472492e-17
5.6969454e-16
-2.2014084e-15
0
0
1.4969524e-17
1.3984408e-22
-1.0278565e-20
1.5251699e-20
2.2344093e-18
-1.5785038e-21
1.1929256e-20
-4.6124647e-17
2.8309416e-14
4.6493238e-14
1.3476364e-16
-4.2248631e-16
2.8456471e-15
1.3473249e-19
-1.1581036e-18
4.1717013e-19
-1.1745423e-21
4.7811516e-19
7.7020335e-22
0
7.7792362e-19
4.2510297e-17
-1.0353938e-16
-1.6591864e-21
1.6279952e-22
3.8780032e-20
1.8008274e-21
-5.0896927e-21
1.8068741e-19
3.4261241e-17
1.6037901e-20
1.2629947e-19
1.4688226e-15
1.394864e-14
7.4082478e-14
0
-1.598051e-16
1.7591838e-15
4.6517196e-19
-3.589309e-19
6.0986096e-18
-6.8151286e-22
6.4382053e-19
1.6004899e-21
0
2.4608443e-20
1.4436567e-18
0
-6.6772821e-23
5.3915788e-23
8.4208549e-21
0
-3.3529995e-20
7.6148475e-20
-1.9403458e-17
4.904896e-19
9.2876577e-18
1.9957949e-16
1.452021e-15
3.1200325e-14
3.5618439e-19
-8.0648444e-19
9.1779733e-16
1.941633e-22
-5.3946015e-20
5.0905721e-20
-1.7328558e-21
2.9106669e-20
1.4476257e-21
9.6104193e-22
1.657465e-22
2.7019263e-19
0
0
2.6098823e-24
8.6610052e-21
-2.4713345e-19
-8.1944062e-21
5.4403756e-19
-1.6060635e-19
6.1196606e-19
1.8329067e-17
1.1549778e-18
1.0038084e-17
1.4439278e-15
0
-1.3459611e-24
3.4965159e-19
3.2362303e-21
-5.1349238e-24
2.3365883e-19
-7.033159e-23
4.030962e-20
1.6873948e-22
-1.4775655e-25
2.2300745e-23
1.6121783e-20
-4.6533076e-22