/*--------------------------------*- C++ -*----------------------------------*\
  =========                 |
  \\      /  F ield         | OpenFOAM: The Open Source CFD Toolbox
   \\    /   O peration     | Website:  https://openfoam.org
    \\  /    A nd           | Version:  13
     \\/     M anipulation  |
\*---------------------------------------------------------------------------*/
FoamFile
{
    format      ascii;
    class       volScalarField;
    location    "0.06";
    object      p_rgh;
}
// * * * * * * * * * * * * * * * * * * * * * * * * * * * * * * * * * * * * * //

dimensions      [1 -1 -2 0 0 0 0];

internalField   nonuniform List<scalar> 
51200
(
0.97731223
0.96352309
0.95549911
0.95237997
0.95237884
0.95549585
0.96351819
0.97730636
0.96717613
0.95399063
0.94666033
0.94388176
0.94388066
0.94665716
0.95398583
0.96717029
0.95783276
0.94548477
0.93880749
0.93631576
0.9363147
0.93880442
0.94548009
0.95782696
0.95022453
0.93877059
0.93272918
0.93048275
0.93048173
0.93272622
0.93876605
0.9502188
0.94380042
0.93322386
0.92780537
0.92577573
0.92577476
0.92780253
0.93321947
0.94379479
0.93819872
0.92846712
0.92364855
0.92181353
0.9218126
0.92364582
0.9284629
0.93819321
0.93329923
0.92434402
0.92009839
0.91844226
0.91844137
0.92009577
0.92433996
0.93329387
0.92906802
0.92067602
0.9170087
0.91552318
0.91552234
0.91700621
0.92067215
0.92906282
0.88992858
0.88920549
0.88873737
0.88823218
0.88823094
0.88873385
0.88920018
0.88992215
0.8909421
0.89033869
0.88985686
0.88935361
0.88935243
0.88985344
0.89033351
0.8909357
0.8920756
0.89164758
0.8911559
0.89065031
0.89064917
0.8911526
0.89164255
0.89206926
0.89323162
0.89295535
0.89245017
0.8919425
0.8919414
0.892447
0.89295048
0.89322537
0.89440277
0.89421396
0.89369214
0.89318659
0.89318554
0.8936891
0.89420928
0.89439663
0.8955396
0.89536886
0.894832
0.89433493
0.89433394
0.89482909
0.89536436
0.8955336
0.89658865
0.89637896
0.8958322
0.89535003
0.89534908
0.89582944
0.89637466
0.89658281
0.89744468
0.89717775
0.89662636
0.89616123
0.89616032
0.89662374
0.89717365
0.89743905
0.89179596
0.89052421
0.8897552
0.88938455
0.88938307
0.88975088
0.89051774
0.8917882
0.89209667
0.89084055
0.89012863
0.88977048
0.88976905
0.89012444
0.89083424
0.89208894
0.89239613
0.89117037
0.89051957
0.89017197
0.8901706
0.89051553
0.89116423
0.89238844
0.89253574
0.89135462
0.8907716
0.89043972
0.8904384
0.8907677
0.89134867
0.89252813
0.89255214
0.89143683
0.89092369
0.8906121
0.89061084
0.89091995
0.89143109
0.89254464
0.89250713
0.89147009
0.89102529
0.89073797
0.89073677
0.8910217
0.89146457
0.89249976
0.89240241
0.89145397
0.89108176
0.8908249
0.89082376
0.89107834
0.89144868
0.89239521
0.89208003
0.8913133
0.89103666
0.89082074
0.89081966
0.89103341
0.89130826
0.89207307
0.88154269
0.88130892
0.8813433
0.8814344
0.88143248
0.88133772
0.88130064
0.88153296
0.88173521
0.88155098
0.88159428
0.88166515
0.8816633
0.88158888
0.8815429
0.8817255
0.88193404
0.88179513
0.88185204
0.88190524
0.88190346
0.88184682
0.88178727
0.88192439
0.88211562
0.88201355
0.88208762
0.88212875
0.88212704
0.88208258
0.88200591
0.88210605
0.88228574
0.88221817
0.88231176
0.88234527
0.88234364
0.88230692
0.88221078
0.88227628
0.88245634
0.88242045
0.88253395
0.88256327
0.88256171
0.88252931
0.88241332
0.88244702
0.88262481
0.88262574
0.88275911
0.88278832
0.88278684
0.88275468
0.8826189
0.88261569
0.88272661
0.88284708
0.88299898
0.8830347
0.8830333
0.88299477
0.88284053
0.88271775
0.87598967
0.8758207
0.8759295
0.87612782
0.87612518
0.8759219
0.87580957
0.87597688
0.87609037
0.87595906
0.87607878
0.87625518
0.87625263
0.87607141
0.87594818
0.87607759
0.87620027
0.87610405
0.87623688
0.87639382
0.87639137
0.87622976
0.87609343
0.87618755
0.87629311
0.87622623
0.87637587
0.87651948
0.87651713
0.876369
0.8762159
0.87628048
0.8763716
0.8763316
0.87650161
0.87663696
0.87663471
0.87649501
0.87632158
0.87635909
0.87644266
0.876427
0.87662042
0.87675148
0.87674934
0.87661409
0.87641731
0.87643033
0.87650178
0.87651858
0.87673868
0.87686968
0.87686764
0.87673263
0.87650926
0.87648967
0.8765183
0.87664236
0.87688908
0.87702543
0.8770235
0.87688332
0.87663343
0.87650652
0.87070709
0.87063315
0.87080228
0.8710369
0.87103318
0.87079169
0.87061787
0.87069001
0.87077057
0.87073074
0.87090706
0.87111989
0.8711163
0.8708968
0.87071576
0.8707535
0.87084041
0.87083231
0.87101713
0.87121056
0.87120711
0.87100719
0.87081766
0.8708234
0.87090422
0.87092148
0.87111659
0.87129578
0.87129246
0.871107
0.87090719
0.8708873
0.87096351
0.87100166
0.87120915
0.87137833
0.87137515
0.87119991
0.87098777
0.87094673
0.87102168
0.87107621
0.87129817
0.87146073
0.8714577
0.87128931
0.87106276
0.8710051
0.87107569
0.87114925
0.87138781
0.87154731
0.87154442
0.87137934
0.87113628
0.87105938
0.87110726
0.87124765
0.87150225
0.87166321
0.87166047
0.87149418
0.8712352
0.87109136
0.86602559
0.86597191
0.86611518
0.86632102
0.86631566
0.86610008
0.86595046
0.86600237
0.86606508
0.86603772
0.86618783
0.86637621
0.86637104
0.86617317
0.86601661
0.86604184
0.86610915
0.86610651
0.86626405
0.86643679
0.8664318
0.86624984
0.86608579
0.86608595
0.86614947
0.86616701
0.86633298
0.86649405
0.86648924
0.86631925
0.86614673
0.86612637
0.86618709
0.86622162
0.86639741
0.86655008
0.86654548
0.86638418
0.86620185
0.86616414
0.86622458
0.86627297
0.86646003
0.86660693
0.86660253
0.86644733
0.8662538
0.86620187
0.86626064
0.86632447
0.866524
0.8666678
0.86666361
0.86651186
0.86630597
0.86623826
0.86628359
0.86639405
0.8666051
0.86674904
0.86674508
0.86659355
0.86637629
0.86626172
0.86163506
0.86159626
0.86170181
0.86186171
0.86185387
0.86167986
0.8615656
0.86160319
0.8616607
0.86164175
0.86175358
0.86190076
0.86189317
0.86173222
0.86161143
0.86162876
0.86168966
0.86168948
0.8618078
0.86194354
0.86193621
0.86178705
0.86165955
0.86165768
0.86171657
0.86173164
0.86185674
0.86198382
0.86197676
0.86183665
0.86170225
0.86168466
0.86174203
0.8617697
0.86190226
0.86202302
0.86201623
0.86188289
0.86174098
0.86171027
0.86176769
0.86180541
0.86194622
0.86206258
0.8620561
0.86192763
0.8617775
0.86173619
0.86179271
0.86184109
0.86199071
0.86210466
0.86209849
0.86197297
0.86181416
0.8617616
0.86180852
0.86188807
0.8620455
0.86215927
0.86215343
0.86202865
0.86186224
0.86177804
0.85744567
0.85741469
0.85747948
0.85759044
0.85757877
0.85744661
0.85736953
0.85740065
0.85746294
0.85744651
0.85751706
0.8576196
0.85760828
0.85748494
0.85740153
0.85741765
0.8574826
0.85747994
0.85755628
0.85765129
0.85764032
0.85752499
0.85743529
0.85743708
0.85750091
0.85750931
0.85759139
0.85768073
0.85767013
0.85756105
0.85746526
0.85745533
0.8575182
0.85753551
0.85762362
0.8577089
0.85769871
0.85759436
0.85749237
0.85747273
0.85753558
0.85755972
0.85765431
0.8577369
0.85772716
0.85762627
0.85751779
0.85749042
0.85755255
0.8575836
0.85768488
0.85776618
0.85775692
0.85765818
0.85754319
0.85750794
0.85756282
0.8576146
0.85772156
0.85780305
0.85779431
0.85769629
0.85757599
0.85751914
0.85339736
0.85337319
0.85340307
0.85346995
0.85345251
0.85335224
0.85330477
0.85333218
0.85340988
0.85339621
0.85343097
0.85349281
0.85347583
0.85338103
0.85332755
0.85334396
0.85342409
0.85342029
0.85345996
0.8535174
0.85350089
0.8534111
0.85335178
0.8533574
0.85343712
0.85344103
0.85348549
0.85353975
0.85352378
0.85343805
0.85337326
0.85337005
0.8534492
0.85345896
0.85350842
0.85356061
0.85354525
0.85346271
0.85339251
0.8533821
0.85346111
0.85347489
0.85352971
0.85358081
0.85356613
0.85348603
0.85341034
0.85339434
0.85347248
0.85349005
0.85355041
0.8536014
0.85358747
0.853509
0.85342805
0.8534065
0.85347873
0.85350984
0.85357485
0.85362666
0.85361352
0.8535359
0.85345087
0.85341421
0.84947321
0.84944782
0.84944588
0.84947238
0.84944589
0.84936501
0.84948874
0.84936061
0.84948351
0.84946506
0.84946695
0.84949085
0.84946481
0.84938427
0.84935328
0.84937683
0.84949473
0.84948279
0.8494887
0.8495105
0.84948509
0.8494082
0.84937224
0.84938471
0.84950397
0.84949725
0.84950734
0.84952798
0.84950347
0.84942982
0.84938844
0.84939236
0.84951164
0.84950882
0.84952348
0.84954386
0.84952041
0.84944935
0.84940249
0.84940027
0.84951857
0.84951812
0.84953787
0.8495588
0.84953652
0.84946754
0.84941531
0.8494085
0.84952445
0.84952611
0.84955131
0.84957357
0.84955257
0.84948522
0.84942802
0.84941675
0.84952574
0.8495371
0.84956718
0.84959139
0.8495717
0.84950562
0.84944462
0.84942187
0.84567462
0.84562738
0.84559267
0.84558131
0.8455429
0.84544698
0.84581677
0.84546624
0.84568467
0.84564026
0.84560889
0.84559637
0.84555788
0.84546096
0.84546868
0.84548993
0.84569212
0.84565323
0.84562544
0.84561235
0.84557488
0.84548566
0.84548131
0.845494
0.84569597
0.84566262
0.84563889
0.84562625
0.84559032
0.84550775
0.84549232
0.84549789
0.84569732
0.84566866
0.84564971
0.84563846
0.84560445
0.84552682
0.84550214
0.8455027
0.84569729
0.84567182
0.84565849
0.84564954
0.84561769
0.84554394
0.84551114
0.84550801
0.84569579
0.84567287
0.84566594
0.84566011
0.84563054
0.84556011
0.84552024
0.84551339
0.84569054
0.84567573
0.84567498
0.8456728
0.84564538
0.84557808
0.84553261
0.84551654
0.84247761
0.84197258
0.84183351
0.84176886
0.84174831
0.84571013
0.84188113
0.84162019
0.84226899
0.84193553
0.84184369
0.84177803
0.84170483
0.84164339
0.84166985
0.84165884
0.84221011
0.84193418
0.8418549
0.84179063
0.84173168
0.8416721
0.8416611
0.84166091
0.84216247
0.84193319
0.8418635
0.84180323
0.84175303
0.84169145
0.84166489
0.84166202
0.84211971
0.84193077
0.84186954
0.84181443
0.84177053
0.84170601
0.84167302
0.84166473
0.84208062
0.84192632
0.84187332
0.84182426
0.84178617
0.84171919
0.84168074
0.84166859
0.84204552
0.84191989
0.84187541
0.84183337
0.84180057
0.84173202
0.84168826
0.84167294
0.84201795
0.84191444
0.84187871
0.84184455
0.84181557
0.84174699
0.84169862
0.84167612
0.84047339
0.8386694
0.83817388
0.83816631
0.83818008
0.84556538
0.83780573
0.83850363
0.83931697
0.83839652
0.83817533
0.83807334
0.83793656
0.83799943
0.83795983
0.83789259
0.83910495
0.83836219
0.83818166
0.83808336
0.83799143
0.83799721
0.8378581
0.83790257
0.83894525
0.83833861
0.83818476
0.83809243
0.83803316
0.83800471
0.83787143
0.83790023
0.83880443
0.83831731
0.83818461
0.83810031
0.8380652
0.83800717
0.83788556
0.83789892
0.83867974
0.83829571
0.83818173
0.83810663
0.83808982
0.83800985
0.83789776
0.83789892
0.83857427
0.83827253
0.83817638
0.8381118
0.83810879
0.83801407
0.83790957
0.83789981
0.83849401
0.83824732
0.83817098
0.83811862
0.838124
0.83802135
0.83792377
0.83790062
0.83563348
0.83449979
0.83435116
0.8348665
0.86825115
0.8380892
0.83398875
0.83458811
0.83530042
0.83444413
0.83438783
0.83435419
0.83451257
0.83444025
0.83418784
0.83411461
0.83520872
0.83442502
0.83440519
0.83433254
0.83463006
0.83417724
0.83408453
0.8341268
0.83503625
0.8344278
0.83441719
0.83435163
0.83469775
0.83418463
0.83409566
0.83412347
0.83488924
0.83443629
0.83442662
0.83436999
0.83472246
0.83420926
0.83411088
0.83412109
0.83476972
0.83444235
0.83443344
0.83438562
0.83473125
0.83423725
0.83412997
0.83412083
0.83467516
0.83444465
0.83443771
0.83439959
0.83472827
0.83426554
0.83415128
0.83412301
0.83462033
0.83444725
0.83444279
0.83441623
0.83471643
0.83429536
0.83417584
0.83412958
0.83621879
0.83088559
0.83062723
0.83080945
0.86624009
0.83348983
0.83016949
0.83061944
0.8318898
0.83078265
0.8306841
0.83086901
0.83256604
0.83079622
0.83028589
0.83060036
0.83329346
0.83098308
0.83071756
0.83073713
0.83232685
0.83012181
0.83030028
0.83057289
0.83180418
0.83087464
0.83073661
0.83074911
0.83225878
0.8302119
0.83031877
0.8305455
0.83147706
0.83085065
0.83075104
0.83076133
0.83216991
0.83031324
0.83034228
0.83051827
0.831259
0.83082525
0.8307608
0.83077814
0.83206008
0.83041272
0.83037369
0.83049463
0.83109493
0.83079521
0.83076927
0.83079488
0.83194038
0.83050489
0.8304105
0.83047626
0.83098919
0.83076486
0.83077694
0.83081451
0.83181222
0.83059777
0.8304515
0.83046715
0.83332216
0.82642928
0.82633061
0.82669995
0.83410482
0.82996348
0.82697087
0.82667002
0.82746436
0.82618675
0.8264251
0.82689978
0.83306353
0.82650107
0.82620482
0.82674078
0.8281259
0.82632848
0.82651522
0.82692787
0.83032933
0.82607602
0.82630058
0.82672344
0.82726348
0.8264093
0.82659529
0.82692972
0.82998305
0.82638247
0.82635472
0.82670633
0.82708987
0.82647194
0.82667146
0.8269923
0.8297166
0.82654774
0.82641576
0.82669167
0.82693591
0.82651802
0.82674487
0.82705517
0.82944495
0.82670231
0.82648558
0.82667951
0.82682107
0.82656411
0.82681424
0.82711491
0.82917858
0.82684952
0.82656225
0.82667221
0.82675648
0.82661378
0.82688184
0.82717502
0.8289138
0.82699731
0.82664706
0.82668107
0.82640697
0.82371353
0.82227165
0.82294473
0.83065802
0.82485715
0.83304243
0.8559752
0.82461342
0.82290172
0.8222847
0.82309215
0.83023789
0.82189028
0.82162924
0.82436703
0.82385242
0.8227333
0.82233619
0.82325373
0.82911484
0.82257749
0.82193407
0.82380715
0.82280064
0.82263272
0.82242902
0.82334654
0.82658494
0.82225387
0.82210709
0.82363355
0.82272376
0.8225785
0.82254186
0.82343122
0.82631668
0.82240608
0.8221913
0.82352124
0.82266686
0.82254256
0.82266139
0.82351585
0.82604195
0.82268743
0.82229156
0.82340532
0.82262572
0.82253751
0.82278378
0.82360243
0.82578574
0.82293095
0.82241483
0.82328877
0.8226156
0.8225565
0.82291292
0.82369053
0.82552679
0.82320194
0.82256522
0.82318472
0.82016936
0.81919289
0.8180599
0.81964487
0.83457389
0.81938813
0.82816773
0.84222806
0.81855795
0.81854375
0.8177809
0.81926789
0.83708751
0.8166601
0.81738772
0.81896741
0.81858933
0.81850349
0.81769432
0.81939433
0.83814573
0.81869586
0.81714579
0.82118857
0.81839518
0.81847378
0.81785162
0.82004751
0.82832509
0.81962532
0.81746843
0.82069215
0.81840598
0.81847661
0.81810808
0.82018015
0.82489079
0.81941799
0.8177397
0.82036047
0.81844122
0.81850844
0.8183752
0.82034676
0.82401671
0.81950994
0.81796233
0.82010532
0.8184847
0.81856999
0.81864529
0.82051462
0.82349057
0.81977844
0.8181944
0.81986595
0.81854955
0.81866156
0.81894161
0.82068591
0.82300581
0.82004767
0.81846393
0.81960629
0.81530267
0.81455478
0.81416243
0.81633557
0.84209127
0.81523224
0.82401319
0.81879807
0.81408402
0.81449183
0.81402207
0.81651717
0.81914826
0.81625818
0.81756698
0.82236194
0.81406711
0.81434828
0.81380125
0.81650428
0.82223698
0.81369568
0.81432341
0.81796601
0.81405147
0.81432647
0.81379463
0.8166657
0.8369002
0.814428
0.81375018
0.81718493
0.81406811
0.81437163
0.81411435
0.8176729
0.82610617
0.81539236
0.81391388
0.81684807
0.81411896
0.81448064
0.81455868
0.81839484
0.8213944
0.81537842
0.81411798
0.81648601
0.81420627
0.81464204
0.8150098
0.81886374
0.82045868
0.81561003
0.81433731
0.81615582
0.81434973
0.81486014
0.81550227
0.81917554
0.81989203
0.8161545
0.81459752
0.81586539
0.81214302
0.81034681
0.80864562
0.81341573
0.81839965
0.81262767
0.82038215
0.81593399
0.80976805
0.81025765
0.80881727
0.81392172
0.81532799
0.81447484
0.81615196
0.81673462
0.80961886
0.80999902
0.80876289
0.81401657
0.81460808
0.81230451
0.81363841
0.81534054
0.80951861
0.80991315
0.80896116
0.81331646
0.81659458
0.81250451
0.81354205
0.81362139
0.80948281
0.80993202
0.80940956
0.81598592
0.8287839
0.81286605
0.81178386
0.81084113
0.80949646
0.81004541
0.80995042
0.81669966
0.80938647
0.81268546
0.81035852
0.8108673
0.80956837
0.81026906
0.81057351
0.8172379
0.81093003
0.81239002
0.81046756
0.81085985
0.80976225
0.81064668
0.81144924
0.81798927
0.81193454
0.81256644
0.81069666
0.81081415
0.80523168
0.79979374
0.79100867
1.0210472
0.80421349
0.80320392
0.8087854
0.81755923
0.80514008
0.79879438
0.79234388
1.020078
0.8047998
0.8029621
0.80834392
0.80626223
0.80386823
0.79811367
0.79634887
1.0157439
0.80674695
0.80229267
0.80789839
0.83037816
0.8032777
0.79839584
0.80155663
1.0176982
0.8068054
0.80224021
0.80581644
0.82855332
0.80296799
0.79972199
0.80879866
0.97924428
0.81002758
0.80339763
0.80601614
0.81109634
0.80297688
0.80136692
0.81310563
0.92206078
0.81232574
0.80505903
0.80533134
0.80730677
0.80319223
0.80279342
0.81463646
0.90128326
0.81387223
0.80599181
0.80543805
0.80691665
0.80367819
0.80443364
0.81599745
0.87479865
0.81389641
0.80726017
0.8056846
0.80665184
0.80503798
0.79638178
0.75405785
0.95543085
0.90597254
0.7935026
0.81533437
0.84190685
0.80062998
0.79220511
0.75038188
1.1005945
0.88199948
0.79394283
0.80492895
0.81866795
0.7974888
0.79376863
0.77361561
1.0731347
0.87280826
0.79744546
0.80296586
0.83741091
0.79712292
0.79632392
0.80149044
1.3035282
0.86551128
0.80084038
0.80065542
0.83762102
0.79684028
0.79362193
0.77787132
1.1164763
0.83769766
0.80146356
0.80074667
0.80207042
0.79629336
0.7881861
0.78419561
1.213057
0.84418776
0.80068317
0.80141016
0.79926759
0.79573089
0.78705503
0.79999872
1.1982176
0.86682408
0.80248457
0.80209775
0.79952723
0.79591664
0.79015779
0.81546415
1.1761059
0.87025563
0.80526519
0.80248172
0.7998882
0.79444076
0.78707329
0.74363077
1.1447733
0.90246036
0.78493663
0.8051651
0.8073195
0.79203265
0.78436451
0.75269459
1.162777
0.91387391
0.78445359
0.79905865
0.79940935
0.79068095
0.78256569
0.76367613
1.1685125
0.90624687
0.78745121
0.79816207
0.81304469
0.79041769
0.78155315
0.77401978
1.1826109
0.91530295
0.78999515
0.79591398
0.83492542
0.7899224
0.78103096
0.78491598
1.1827709
0.90132575
0.79210148
0.79482627
0.79152638
0.78957506
0.7810557
0.79554244
1.1816002
0.89167202
0.79467433
0.79427586
0.79146262
0.78952193
0.78230273
0.80447829
1.178314
0.86928079
0.79680588
0.79470938
0.79169315
0.79014931
0.78531325
0.81598323
1.1691841
0.86488635
0.79855956
0.79535788
0.79226492
0.78495501
0.79032524
0.75789874
1.1688238
0.81903814
0.78674518
0.78979949
0.78639031
0.78501139
0.78817158
0.76965547
1.1677588
0.82330812
0.78385779
0.78917025
0.78574312
0.78518733
0.78767048
0.77819571
1.1683259
0.82321612
0.78630902
0.78912698
0.78545715
0.78559504
0.7874241
0.78542298
1.1682015
0.82727787
0.78795221
0.78852934
0.78679309
0.78606613
0.7873553
0.79046743
1.1668517
0.82284379
0.7885974
0.78835658
0.78481635
0.78652988
0.78743407
0.79395897
1.1661271
0.82115289
0.78900255
0.78848662
0.78476059
0.78712017
0.78783307
0.80135881
1.1676049
0.81179962
0.78928448
0.78868197
0.78516482
0.78814368
0.78990722
0.81246716
1.1650485
0.8134776
0.7892619
0.7889912
0.78575171
0.78075695
0.77734023
0.78674614
0.9538033
0.79828616
0.78588692
0.78232922
0.77780494
0.78062476
0.77602396
0.78249174
0.90230541
0.79623018
0.77940864
0.78073209
0.77789286
0.78054362
0.77564529
0.781933
0.89432677
0.7964299
0.78055113
0.78069309
0.77788407
0.78051606
0.77552928
0.78769898
0.97113838
0.79795134
0.78209852
0.78100192
0.77786913
0.78055064
0.77590928
0.79255446
0.9188148
0.79934264
0.78284862
0.78132725
0.77796052
0.78061552
0.77678986
0.79476329
0.92420859
0.80011174
0.78391281
0.78176776
0.77821121
0.78084486
0.77781885
0.79636688
0.89968544
0.80022123
0.78477806
0.78228565
0.77856181
0.78139484
0.77921451
0.80088576
0.88886475
0.8003255
0.78542482
0.78279539
0.77905992
0.77333565
0.77405
0.79746822
0.79533883
0.81045243
0.79084302
0.77554473
0.7681888
0.7738873
0.77321058
0.80555153
0.79262347
0.81130249
0.78427348
0.77032231
0.76858793
0.77423419
0.77379878
0.79706683
0.79168112
0.81258556
0.7879537
0.77099315
0.76850962
0.7745458
0.77356801
0.79329456
0.79124312
0.8143083
0.78906329
0.7721183
0.76856783
0.77488564
0.77361834
0.80395111
0.79262077
0.8148506
0.79094246
0.77344061
0.76887177
0.77493547
0.77550248
0.80715228
0.79381345
0.81504411
0.79225294
0.77490375
0.76934425
0.77526552
0.77725683
0.81150724
0.79456067
0.81529438
0.79251472
0.77652845
0.76993527
0.77597261
0.77898637
0.8133126
0.79437639
0.81313068
0.79255278
0.77779922
0.77069676
0.77046457
0.76511808
0.80995604
0.7836895
0.84218694
0.76743013
0.7485207
0.75451401
0.77095039
0.76528618
0.79244449
0.78247217
0.82223652
0.77590693
0.74478108
0.75428881
0.77069025
0.76666543
0.78956708
0.78125452
0.82601907
0.76534534
0.74525011
0.7539047
0.7706442
0.77229972
0.77681337
0.78419462
0.83540187
0.7627341
0.74659235
0.75383432
0.76944976
0.77049255
0.77679118
0.79020879
0.84142936
0.76874018
0.74886326
0.75372636
0.76963613
0.78296957
0.77872493
0.80043387
0.83806538
0.77248021
0.75149822
0.75410917
0.77032363
0.7673533
0.7857838
0.80287424
0.83252923
0.77603989
0.75333323
0.75407749
0.7705213
0.76949127
0.77864285
0.80035492
0.82339212
0.77684414
0.75576841
0.75459008
0.76622681
0.74456415
0.77401118
0.82322898
0.77238613
0.86634345
0.67144349
0.74497184
0.76072359
0.74422504
0.7791112
0.79922942
0.75405144
0.83396529
0.66705357
0.74036177
0.75919224
0.74144522
0.75721169
0.85228089
0.74873285
0.98406186
0.67355513
0.73724189
0.75939358
0.75010729
0.75468903
0.83380864
0.74090989
0.82362392
0.68444145
0.73535399
0.75581322
0.74164667
0.75487618
0.8163224
0.73213216
0.82838379
0.68982939
0.73365774
0.75463471
0.74406684
0.75581317
0.81201012
0.74426307
0.82289736
0.69530614
0.73150926
0.75303892
0.74805626
0.75836142
0.80305749
0.70390222
0.79938177
0.70152001
0.73006941
0.75285571
0.75048297
0.75955213
0.79970503
0.7121725
0.78176442
0.70841588
0.72836019
0.81411352
0.67498707
0.72099227
2.9421611
4.0978518
0.73068057
0.56280637
0.71775513
0.72707833
0.68138109
0.71379882
2.3540172
3.797997
0.61653059
0.56239623
0.70525484
0.73008487
0.68334966
0.74550099
1.6933071
3.6480864
0.62746689
0.55713761
0.69514171
0.71138226
0.69152496
0.74792318
1.6265696
3.8254421
0.6440062
0.55883586
0.68626401
0.70743238
0.70206713
0.76981262
1.5387266
3.5707799
0.66580873
0.58203148
0.68012529
0.70218221
0.71235694
0.80311593
1.4563257
3.2124549
0.71278657
0.6027635
0.67526412
0.70593902
0.72398819
0.79506553
1.2162264
2.3253651
0.75402052
0.62589786
0.67334242
0.71203544
0.72836948
0.75483562
1.0534023
2.1244901
0.76508232
0.65150699
0.67336878
0.78757399
0.54425125
-0.30939535
34.300908
45.425881
-0.41833557
0.4868441
0.67465253
0.65882166
0.51107699
-0.0053617775
35.370802
47.322446
-0.15767971
0.44453073
0.66360473
0.68411771
0.47673417
0.91866627
33.735841
42.902328
0.76587375
0.38596371
0.65718102
0.65244999
0.50876472
1.5775307
26.581663
44.04617
1.4246745
0.43265153
0.66467989
0.64636815
0.56055172
1.8630156
21.651712
43.053304
2.0203357
0.44009358
0.67416463
0.65170521
0.63050588
2.2580818
17.709633
38.66048
2.4488139
0.56134186
0.66463625
0.66450137
0.71911596
2.6121231
16.85765
41.54827
1.5761042
0.65770097
0.65810965
0.68352084
0.78684125
1.8629028
17.660923
31.503069
1.3172608
0.71718519
0.64960864
0.64457523
-0.43966442
12.449674
64.1845
64.296643
8.9804767
-0.22727419
0.69017246
0.51963093
-0.78339688
15.08196
63.646975
64.469212
12.411817
-0.5365396
0.60678577
0.40050442
-0.24674292
14.835311
63.156095
64.854283
10.248897
-0.16273862
0.52630232
0.28100079
0.20633533
15.821901
62.550053
65.385742
9.0925018
0.018474681
0.43626101
0.10269516
0.5295503
13.139076
62.32739
66.649158
10.626871
0.091769589
0.31523669
0.031821606
0.69062763
9.712643
62.128594
68.11213
18.325345
0.2098954
0.2253821
0.13628779
0.92585344
18.570374
61.707606
69.80282
25.681686
0.57477628
0.18447394
0.36282156
1.5098676
24.369894
53.218359
65.388139
29.437197
1.6147452
0.27532701
0.73019479
0.29390527
0.81455849
40.262699
37.656358
0.57586198
0.10244052
0.63776713
0.70376481
0.18965554
1.5697601
40.366927
38.918004
1.6471484
0.0061066909
0.61287808
0.66553186
0.20619725
1.4388945
39.135247
39.534511
1.8157773
0.028150705
0.55176812
0.61130145
0.20035102
1.5343888
36.981152
42.40739
2.5975761
0.027122313
0.47356881
0.53434843
0.18259777
1.9889596
35.123668
43.157782
3.6835009
0.026278125
0.3576081
0.43807127
0.1727438
2.6722857
29.294853
46.252105
5.3165135
0.058375982
0.24222708
0.3832741
0.18521529
3.0852657
25.336679
29.945631
7.0384879
0.18304791
0.16224678
0.37516271
0.29500078
3.4189837
18.626808
22.452671
7.7450231
0.47434051
0.17706202
0.66955034
0.43478048
0.40246474
4.2838199
6.4091947
0.31443141
0.41608225
0.63360012
0.66436637
0.42507489
0.35459506
4.3849556
7.1619379
0.21546652
0.39451776
0.64081751
0.6549795
0.41682793
0.38364037
3.7636757
7.2898359
0.27769883
0.35651879
0.62421904
0.63549771
0.39442644
0.4302786
3.3541341
7.4560603
0.333508
0.41148291
0.59991637
0.60701575
0.3947517
0.44980288
2.9765874
6.9875653
0.44474759
0.29246795
0.57398984
0.57200831
0.38427449
0.48050432
2.6229858
6.5750279
0.54850927
0.307553
0.53216619
0.53383849
0.38771976
0.51641921
2.1294573
5.3206268
0.66449044
0.32112587
0.47954721
0.50270653
0.39382322
0.55482452
1.5478123
2.9715518
0.70750165
0.35055853
0.44177279
0.61749148
0.54913527
0.52439707
0.63576583
0.74101009
0.5886421
0.51512674
0.58234226
0.60866508
0.54429562
0.5059377
0.61462643
0.69709995
0.54872599
0.53251494
0.59004324
0.60540799
0.53756238
0.52309053
0.61254586
0.67799787
0.57667837
0.5218662
0.61980707
0.6043442
0.53372181
0.53791696
0.61919838
0.67677663
0.58988878
0.5068456
0.61007846
0.60526142
0.53155468
0.550313
0.61418201
0.66503455
0.60905224
0.51377831
0.58538723
0.59554878
0.53079678
0.56310334
0.60317733
0.64077294
0.62542044
0.51404972
0.57895033
0.58197416
0.53142229
0.57368298
0.60370592
0.62467219
0.63759484
0.4978945
0.5712987
0.57890557
0.53341504
0.5775211
0.59967381
0.61815922
0.64162464
0.49817166
0.56100758
0.56635027
0.5404903
0.52414879
0.60836842
0.66084137
0.58211586
0.57307277
0.61471081
0.56422948
0.53739729
0.528947
0.60614531
0.65286738
0.60079204
0.54006058
0.64586922
0.56228779
0.53659793
0.5290076
0.6036083
0.64440672
0.57722464
0.55258308
0.60231154
0.56247951
0.53370025
0.53134906
0.60067312
0.63489513
0.58530832
0.52323837
0.65216398
0.56412851
0.53183452
0.5336435
0.59809906
0.6252746
0.60035229
0.52622524
0.55080874
0.56378524
0.53026756
0.5357539
0.59678189
0.61627497
0.60271483
0.54214857
0.55219667
0.55213215
0.52937705
0.53834541
0.59357431
0.60719835
0.60102375
0.5531444
0.55819462
0.55081595
0.52983266
0.53980175
0.59332973
0.59662274
0.59806356
0.53282608
0.55907316
0.56440108
0.55695122
0.53127413
0.55611438
0.56933391
0.63402823
0.52988529
0.59093524
0.56373457
0.54973179
0.54260211
0.5573143
0.56952071
0.60880703
0.53301849
0.61769307
0.55994715
0.54944734
0.53595109
0.55773052
0.56852373
0.6117583
0.57125502
0.58363322
0.55471647
0.54807931
0.53585632
0.55822507
0.56757019
0.5523487
0.56070871
0.64388245
0.55848934
0.54620532
0.53598674
0.55925529
0.56758559
0.55478138
0.5386556
0.5550155
0.55386717
0.54421188
0.53666188
0.56062882
0.56781983
0.55985874
0.54669548
0.55292164
0.5481735
0.54257859
0.53878814
0.56473585
0.56729088
0.55860505
0.54562805
0.55081329
0.55454601
0.54301051
0.53838841
0.56296844
0.56695259
0.56270947
0.54559808
0.5503432
0.54902541
0.54655669
0.55847168
0.52846407
0.53250783
0.58887864
0.55145702
0.54249654
0.5457116
0.5467156
0.58087745
0.52752246
0.53121437
0.56361636
0.54863932
0.54601577
0.54445389
0.54584934
0.521641
0.52732172
0.53130137
0.61318562
0.55184641
0.54808865
0.53777331
0.54389717
0.52145648
0.52827147
0.53095613
0.53908237
0.56141346
0.61557929
0.54036738
0.54096941
0.52172939
0.52936651
0.53172237
0.53904198
0.54243398
0.52786202
0.53977789
0.54104851
0.52232125
0.53054686
0.53265016
0.54246561
0.53939221
0.53258154
0.53687184
0.5373505
0.52389161
0.53182821
0.53260863
0.54413083
0.53869049
0.53539224
0.55492089
0.53980773
0.52455564
0.53319937
0.53362193
0.54166994
0.53765602
0.53722047
0.51187364
0.51833157
0.54223709
0.50206858
0.50105576
0.53124578
0.55152563
0.4915192
0.51006779
0.5239726
0.57899093
0.5005629
0.50039235
0.52386544
0.52792393
0.4719042
0.51012073
0.52100581
0.50738397
0.498546
0.5002812
0.52145586
0.52989603
0.46988383
0.50638919
0.5200122
0.50509625
0.4989126
0.5009088
0.52057242
0.53261421
0.53529575
0.50786745
0.52197617
0.50463701
0.49850669
0.49997187
0.51899505
0.57348606
0.5128811
0.50778709
0.51911532
0.496161
0.49828286
0.50334669
0.61532796
0.49337404
0.51260288
0.50287544
0.51576421
0.49616771
0.49797493
0.50689173
0.49622279
0.49915143
0.50953446
0.519964
0.51632057
0.49683384
0.49763324
0.49612475
0.49848351
0.49743243
0.5053264
0.47014498
0.4796768
0.48026288
0.46455061
0.46628039
0.495016
0.49079955
0.45059692
0.46701206
0.48074568
0.48386769
0.468428
0.46597181
0.49185601
0.47319491
0.44721305
0.46795579
0.48186504
0.4724206
0.46425673
0.46570372
0.49168184
0.4736813
0.44606634
0.46216898
0.48174671
0.4725167
0.46384898
0.46701312
0.49469306
0.47074507
0.43773443
0.46172435
0.49161918
0.46976325
0.46294933
0.46776073
0.50270976
0.59526134
0.49358124
0.46563865
0.48276354
0.4649285
0.46172738
0.46549702
0.54551405
0.4810472
0.48270491
0.46218573
0.48303188
0.46381065
0.46013203
0.46486235
0.47416908
0.47856666
0.47209931
0.4688694
0.47979456
0.46280342
0.45818538
0.46920535
0.46970047
0.47357081
0.46776699
0.43860857
0.43698594
0.4261984
0.42640646
0.42370718
0.45440119
0.48032963
0.42896435
0.43431826
0.43585756
0.42588
0.42184692
0.42377019
0.45084339
0.46660215
0.42924592
0.43361508
0.43540409
0.42501881
0.4231575
0.42312262
0.44843652
0.48073574
0.43104793
0.42620453
0.43504528
0.42400506
0.41581413
0.42350035
0.44762572
0.47683082
0.43081155
0.42495851
0.43557015
0.42090641
0.41588624
0.42440841
0.45299177
0.44404829
0.42687246
0.42270588
0.42966992
0.41829568
0.41313098
0.42181188
0.46097385
0.50229681
0.45404012
0.421147
0.42603591
0.41314492
0.40946049
0.41722689
0.44946047
0.40410711
0.43592305
0.41569673
0.42109532
0.40795671
0.40415205
0.41446366
0.43316373
0.4034742
0.42074478
0.40523041
0.40523402
0.39268664
0.3909711
0.39232841
0.41875322
0.39443013
0.4009255
0.40250636
0.40392864
0.39284534
0.39039254
0.39307343
0.41901516
0.39154372
0.40020299
0.40403892
0.40368535
0.39264838
0.39133873
0.39335132
0.41908627
0.42516841
0.41323726
0.39992968
0.40691263
0.39400116
0.39134728
0.39306759
0.41932345
0.41081079
0.41093519
0.39873774
0.39991801
0.3906117
0.38504407
0.3957829
0.42223191
0.41673807
0.41022869
0.39672951
0.39759249
0.38860661
0.38409279
0.39642522
0.43247149
0.40731842
0.40401116
0.39426086
0.39422084
0.384338
0.38055935
0.39299332
0.43458859
0.40233722
0.39762446
0.39094947
0.38979409
0.38032193
0.37614366
0.38639238
0.42824306
0.39504187
0.39230554
0.38407965
0.38858373
0.37969339
0.37568325
0.3777054
0.38717422
0.38587916
0.39079629
0.38392046
0.38764541
0.37980738
0.37680398
0.37870107
0.38773464
0.38679516
0.39061085
0.38453385
0.38809153