/*--------------------------------*- C++ -*----------------------------------*\
  =========                 |
  \\      /  F ield         | OpenFOAM: The Open Source CFD Toolbox
   \\    /   O peration     | Website:  https://openfoam.org
    \\  /    A nd           | Version:  13
     \\/     M anipulation  |
\*---------------------------------------------------------------------------*/
FoamFile
{
    format      ascii;
    class       surfaceScalarField;
    location    "0.06";
    object      phi;
}
// * * * * * * * * * * * * * * * * * * * * * * * * * * * * * * * * * * * * * //

dimensions      [0 3 -1 0 0 0 0];

internalField   nonuniform List<scalar> 
150720
(
1.5615404e-11
2.67575e-09
9.0277955e-10
-3.9996755e-16
-1.6868738e-11
2.637974e-09
9.8865469e-10
-1.8209633e-11
2.6421745e-09
9.5331098e-10
9.3696419e-15
2.6434672e-09
9.3245832e-10
1.822734e-11
2.6434667e-09
9.3245993e-10
1.6882736e-11
2.6421735e-09
9.5331562e-10
-1.5607935e-11
2.6379733e-09
9.8866194e-10
2.675749e-09
9.0278716e-10
4.2034113e-16
-4.3930544e-11
4.1617092e-09
2.0180776e-09
-2.9320186e-15
-1.0073224e-10
3.9996526e-09
2.1552264e-09
-6.8697895e-11
3.9898144e-09
2.080429e-09
2.127754e-14
3.9957481e-09
2.0391032e-09
6.873772e-11
3.9957468e-09
2.0391066e-09
1.0076402e-10
3.9898115e-09
2.080439e-09
4.3949937e-11
3.9996482e-09
2.1552424e-09
4.1617055e-09
2.0180958e-09
9.7594458e-16
-7.9062808e-11
4.8614506e-09
2.7053898e-09
-6.3825221e-15
-1.4524862e-10
4.5637272e-09
2.8281732e-09
-9.4782765e-11
4.5334695e-09
2.731941e-09
2.8747523e-14
4.5448703e-09
2.6821283e-09
9.4836734e-11
4.5448683e-09
2.6821326e-09
1.4529246e-10
4.5334644e-09
2.7319533e-09
7.9089963e-11
4.5637194e-09
2.8281933e-09
4.8614418e-09
2.7054142e-09
1.49563e-15
-9.4941696e-11
5.0350769e-09
3.1133464e-09
-1.0321902e-14
-1.6018814e-10
4.6282809e-09
3.1927134e-09
-1.03515e-10
4.5819992e-09
3.0868178e-09
3.3329912e-14
4.5979512e-09
3.0353914e-09
1.0357782e-10
4.5979486e-09
3.0353958e-09
1.6024013e-10
4.5819924e-09
3.0868304e-09
9.4975326e-11
4.6282703e-09
3.1927345e-09
5.0350622e-09
3.1133735e-09
2.0217209e-15
-9.9578789e-11
4.8728035e-09
3.319846e-09
-1.4509789e-14
-1.5887282e-10
4.3970723e-09
3.348482e-09
-1.0287229e-10
4.3427129e-09
3.2412651e-09
3.6055838e-14
4.3608578e-09
3.1921644e-09
1.0294056e-10
4.3608548e-09
3.1921686e-09
1.5893039e-10
4.3427049e-09
3.2412769e-09
9.9617948e-11
4.39706e-09
3.3485021e-09
4.8727835e-09
3.3198734e-09
2.5632629e-15
-9.576339e-11
4.5118175e-09
3.3807062e-09
-1.8816838e-14
-1.4819786e-10
4.0100932e-09
3.3633516e-09
-9.6936514e-11
3.9549177e-09
3.2604719e-09
3.7637737e-14
3.9720998e-09
3.2157219e-09
9.7008137e-11
3.9720966e-09
3.2157257e-09
1.4825941e-10
3.9549091e-09
3.2604825e-09
9.5807401e-11
4.0100803e-09
3.3633697e-09
4.5117936e-09
3.3807322e-09
3.1320608e-15
-8.5469165e-11
4.049082e-09
3.3381247e-09
-2.3184934e-14
-1.3250339e-10
3.5618988e-09
3.2851254e-09
-8.8067846e-11
3.5101877e-09
3.1901912e-09
3.8536935e-14
3.5232407e-09
3.1506495e-09
8.814158e-11
3.5232375e-09
3.1506528e-09
1.3256799e-10
3.510179e-09
3.1902005e-09
8.5517592e-11
3.5618863e-09
3.2851412e-09
4.0490558e-09
3.3381485e-09
3.7423986e-15
-6.8671416e-11
3.2353288e-09
-2.7121516e-14
3.5383071e-09
-1.1598137e-10
3.1562678e-09
3.1087963e-09
-7.8437684e-11
3.0703737e-09
3.0581257e-09
3.8987341e-14
3.0359767e-09
3.0646428e-09
7.8512876e-11
3.0359797e-09
3.0646393e-09
1.160488e-10
3.0703817e-09
3.0581168e-09
6.872364e-11
3.1562812e-09
3.1087857e-09
3.2353499e-09
4.328926e-15
3.5382806e-09
4.4613019e-11
4.4195481e-10
4.1621233e-10
-6.0973671e-16
3.7461534e-11
4.6217904e-10
5.3362713e-10
1.874184e-11
4.4349589e-10
5.2853478e-10
1.829868e-14
4.3862352e-10
5.1255834e-10
-1.8707754e-11
4.3862309e-10
5.125629e-10
-3.7434955e-11
4.4349455e-10
5.2854827e-10
-4.4599335e-11
4.6217874e-10
5.3364758e-10
4.4195585e-10
4.1623147e-10
5.0061605e-16
8.9757905e-11
1.1616898e-09
1.208591e-09
-6.3937584e-15
7.1931657e-11
1.1815545e-09
1.4536771e-09
3.3690046e-11
1.1339395e-09
1.428227e-09
4.5915226e-14
1.1231879e-09
1.3881829e-09
-3.3604389e-11
1.1231868e-09
1.3881932e-09
-7.1863916e-11
1.1339353e-09
1.4282578e-09
-8.9720765e-11
1.1815522e-09
1.4537258e-09
1.1616888e-09
1.2086409e-09
1.1712677e-15
1.0830388e-10
1.8724859e-09
1.8863051e-09
-1.5269485e-14
8.1625551e-11
1.8612112e-09
2.1751949e-09
3.57574e-11
1.7845898e-09
2.1271589e-09
6.5652863e-14
1.7695019e-09
2.0715061e-09
-3.5634377e-11
1.7695e-09
2.0715194e-09
-8.1526298e-11
1.7845819e-09
2.1271986e-09
-1.0824602e-10
1.8612055e-09
2.1752597e-09
1.8724792e-09
1.886376e-09
1.7069044e-15
1.103078e-10
2.4539039e-09
2.4216465e-09
-2.5935639e-14
7.7459009e-11
2.3903146e-09
2.6964588e-09
3.1275544e-11
2.2895129e-09
2.6280782e-09
7.9224448e-14
2.2720317e-09
2.5640579e-09
-3.1126359e-11
2.2720293e-09
2.5640722e-09
-7.7336285e-11
2.2895014e-09
2.6281208e-09
-1.1023183e-10
2.3903053e-09
2.6965303e-09
2.4538894e-09
2.4217294e-09
2.1426609e-15
1.0300585e-10
2.8585004e-09
2.8122812e-09
-3.7555627e-14
6.7336053e-11
2.735428e-09
3.0390384e-09
2.4443216e-11
2.6187528e-09
2.954918e-09
8.8257443e-14
2.6004541e-09
2.888097e-09
-2.4276133e-11
2.6004514e-09
2.8881109e-09
-6.7195987e-11
2.6187386e-09
2.9549595e-09
-1.0291405e-10
2.7354155e-09
3.03911e-09
2.8584774e-09
2.8123688e-09
2.5205674e-15
9.1198013e-11
3.0826444e-09
3.0654138e-09
-4.9610998e-14
5.5481893e-11
2.9048159e-09
3.2296798e-09
1.7396795e-11
2.7819168e-09
3.135393e-09
9.4118088e-14
2.7637322e-09
3.0697465e-09
-1.7217575e-11
2.7637294e-09
3.0697593e-09
-5.5328937e-11
2.7819011e-09
3.1354315e-09
-9.1092256e-11
2.9048014e-09
3.2297471e-09
3.0826139e-09
3.0655005e-09
2.8912812e-15
7.766476e-11
3.1482957e-09
3.1948704e-09
-6.178604e-14
4.3713698e-11
2.9270268e-09
3.2968656e-09
1.1025852e-11
2.8070488e-09
3.1977471e-09
9.7829897e-14
2.7894229e-09
3.1358868e-09
-1.0838282e-11
2.7894201e-09
3.1358983e-09
-4.3551018e-11
2.8070328e-09
3.1977815e-09
-7.754669e-11
2.9270117e-09
3.2969265e-09
3.1482596e-09
3.1949528e-09
3.3007958e-15
6.420872e-11
3.2104849e-09
-7.3066967e-14
3.109004e-09
3.2980564e-11
3.2628615e-09
2.8516613e-09
5.6887576e-12
3.1635352e-09
2.7411791e-09
1.0006379e-13
3.107179e-09
2.7238092e-09
-5.4940453e-12
3.1071891e-09
2.7238048e-09
-3.2810146e-11
3.1635654e-09
2.7411652e-09
-6.4078972e-11
3.262915e-09
2.8516467e-09
3.2105608e-09
3.6992097e-15
3.1089661e-09
3.6566987e-11
9.3761777e-11
2.8588391e-10
-3.444019e-16
3.7829416e-11
1.2356836e-10
4.0879634e-10
2.0474339e-11
1.1830126e-10
4.2758859e-10
2.4972187e-14
1.1368763e-10
4.1932008e-10
-2.0427862e-11
1.1368678e-10
4.1932895e-10
-3.7793915e-11
1.1829989e-10
4.2761443e-10
-3.654957e-11
1.2356872e-10
4.0883451e-10
9.3762966e-11
2.8591824e-10
6.8918961e-16
8.4160849e-11
3.6910049e-10
8.4909944e-10
-7.9674655e-15
8.8970576e-11
4.3700242e-10
1.1354333e-09
4.7907028e-11
4.1672731e-10
1.1708645e-09
6.4014222e-14
4.015364e-10
1.1481771e-09
-4.7787795e-11
4.0153434e-10
1.1481975e-09
-8.887785e-11
4.1672331e-10
1.1709244e-09
-8.41119e-11
4.3700321e-10
1.1355254e-09
3.6910188e-10
8.4918901e-10
1.0411589e-15
1.1524933e-10
7.6168515e-10
1.3784922e-09
-2.1108681e-14
1.2047699e-10
8.5359891e-10
1.7533707e-09
6.4104512e-11
8.1185011e-10
1.7884086e-09
9.3065843e-14
7.835075e-10
1.7535464e-09
-6.3930443e-11
7.8350427e-10
1.753573e-09
-1.2033864e-10
8.1184265e-10
1.7884875e-09
-1.1517122e-10
8.5359966e-10
1.7534958e-09
7.6168457e-10
1.3786215e-09
6.3730929e-16
1.3197965e-10
1.1967801e-09
1.8546097e-09
-3.7771994e-14
1.3485489e-10
1.289221e-09
2.2579614e-09
7.0826548e-11
1.2225612e-09
2.2813954e-09
1.1387364e-13
1.1812903e-09
2.2369878e-09
-7.0612518e-11
1.1812862e-09
2.2370166e-09
-1.346812e-10
1.2225501e-09
2.281482e-09
-1.3187511e-10
1.2892208e-09
2.258103e-09
1.1967751e-09
1.854764e-09
-3.1718381e-16
1.3775246e-10
1.6137908e-09
2.2575745e-09
-5.6471612e-14
1.3668598e-10
1.6839652e-09
2.6453607e-09
7.0820458e-11
1.5918637e-09
2.651481e-09
1.2828415e-13
1.5395893e-09
2.6004902e-09
-7.0578095e-11
1.5395846e-09
2.6005189e-09
-1.3648527e-10
1.5918493e-09
2.6515675e-09
-1.3762428e-10
1.6839634e-09
2.6455064e-09
1.6137798e-09
2.2577415e-09
-1.6347549e-15
1.3483636e-10
1.9708835e-09
2.5735609e-09
-7.6164242e-14
1.2951823e-10
2.0010469e-09
2.9179162e-09
6.6271811e-11
1.8852888e-09
2.9052144e-09
1.3796757e-13
1.82489e-09
2.8505796e-09
-6.6009782e-11
1.8248851e-09
2.8506065e-09
-1.2929697e-10
1.8852718e-09
2.9052961e-09
-1.3468709e-10
2.0010431e-09
2.9180575e-09
1.9708656e-09
2.5737307e-09
-3.1189605e-15
1.2451326e-10
2.2459306e-09
2.7954062e-09
-9.6168069e-14
1.160405e-10
2.2226269e-09
3.0837583e-09
5.8857428e-11
2.086935e-09
3.053284e-09
1.4425627e-13
2.0218472e-09
2.9976428e-09
-5.8582036e-11
2.0218425e-09
2.9976672e-09
-1.1580358e-10
2.0869165e-09
3.0533584e-09
-1.2434528e-10
2.2226216e-09
3.0838897e-09
2.2459061e-09
2.7955715e-09
-4.6123397e-15
1.0918237e-10
2.9240235e-09
-1.1493526e-13
2.4233246e-09
9.9443254e-11
3.1570775e-09
2.33815e-09
5.0365971e-11
3.1104219e-09
2.1891256e-09
1.4806187e-13
3.0559993e-09
2.1232448e-09
-5.0081718e-11
3.0560211e-09
2.1232403e-09
-9.919457e-11
3.1104878e-09
2.189107e-09
-1.0899657e-10
3.1571956e-09
2.3381431e-09
2.9241795e-09
-6.141352e-15
2.423297e-09
1.7221156e-11
4.1041326e-11
2.2762089e-10
5.394609e-16
2.1868317e-11
5.6554062e-11
3.4759512e-10
1.309988e-11
5.4009568e-11
3.8234746e-10
3.2783074e-14
4.9093823e-11
3.8329336e-10
-1.3039296e-11
4.9092965e-11
3.8330807e-10
-2.1823228e-11
5.4008946e-11
3.8238941e-10
-1.720024e-11
5.6556224e-11
3.4765529e-10
4.1043687e-11
2.2767311e-10
1.2048278e-15
4.787516e-11
1.5394637e-10
6.8832758e-10
-8.354404e-15
6.0197473e-11
2.0174512e-10
9.7791996e-10
3.5803473e-11
1.9266661e-10
1.0566014e-09
8.4279921e-14
1.7678276e-10
1.0562074e-09
-3.5647472e-11
1.7678073e-10
1.0562415e-09
-6.007881e-11
1.9266482e-10
1.0566999e-09
-4.7815115e-11
2.0175142e-10
9.7806648e-10
1.5395107e-10
6.8846497e-10
1.5404727e-15
7.325325e-11
3.3120461e-10
1.128006e-09
-2.5273586e-14
9.0656377e-11
4.1371599e-10
1.5239967e-09
5.3601327e-11
3.9358207e-10
1.6245482e-09
1.2282247e-13
3.6357273e-10
1.620235e-09
-5.3372909e-11
3.635696e-10
1.6202798e-09
-9.0478409e-11
3.9357847e-10
1.6246793e-09
-7.315617e-11
4.1372702e-10
1.524198e-09
3.3121052e-10
1.1282058e-09
2.3848737e-17
9.3145257e-11
5.586741e-10
1.5340428e-09
-4.7934179e-14
1.126262e-10
6.6744875e-10
1.9847477e-09
6.6153329e-11
6.3148218e-10
2.0899682e-09
1.5056688e-13
5.8647676e-10
2.0800865e-09
-6.5871825e-11
5.8647279e-10
2.0801358e-09
-1.1240185e-10
6.3147643e-10
2.0901141e-09
-9.3014104e-11
6.6746392e-10
1.9849784e-09
5.5867961e-10
1.5342837e-09
-2.8835194e-15
1.0713453e-10
8.1393672e-10
1.8952515e-09
-7.419782e-14
1.2615862e-10
9.3392705e-10
2.3598583e-09
7.3645194e-11
8.7832685e-10
2.4571498e-09
1.6983492e-13
8.1941806e-10
2.4410242e-09
-7.3325898e-11
8.1941364e-10
2.4410737e-09
-1.2589856e-10
8.7831891e-10
2.4572977e-09
-1.0697261e-10
9.3394521e-10
2.3600991e-09
8.1394037e-10
1.8955151e-09
-6.942761e-15
1.149669e-10
1.0714882e-09
2.2011449e-09
-1.0240759e-13
1.3172804e-10
1.1851609e-09
2.6499213e-09
7.6578006e-11
1.1078237e-09
2.7308676e-09
1.8277185e-13
1.0376973e-09
2.7086956e-09
-7.6232444e-11
1.0376928e-09
2.7087426e-09
-1.3144064e-10
1.1078139e-09
2.7310094e-09
-1.1477739e-10
1.1851809e-09
2.6501586e-09
1.071489e-09
2.2014164e-09
-1.1664783e-14
1.1647913e-10
1.3074769e-09
2.4430697e-09
-1.3138115e-13
1.3032842e-10
1.3973131e-09
2.8577567e-09
7.5721881e-11
1.29854e-09
2.9171742e-09
1.9112126e-13
1.2210589e-09
2.8898119e-09
-7.5358509e-11
1.2210547e-09
2.889855e-09
-1.3002013e-10
1.2985289e-09
2.9173049e-09
-1.162651e-10
1.3973344e-09
2.8579811e-09
1.3074743e-09
2.4433378e-09
-1.6647812e-14
1.1213236e-10
2.6146056e-09
-1.5884814e-13
1.5049213e-09
1.2364667e-10
2.9889209e-09
1.5539554e-09
7.2099972e-11
3.0233584e-09
1.4371501e-09
1.9610185e-13
2.9921693e-09
1.3567928e-09
-7.1724894e-11
2.9922076e-09
1.3567891e-09
-1.2332249e-10
3.0234754e-09
1.4371388e-09
-1.1189497e-10
2.989126e-09
1.5539764e-09
2.6148623e-09
-2.1672424e-14
1.5049181e-09
1.0720766e-11
2.1237625e-11
1.9566024e-10
2.2548149e-15
1.3881129e-11
3.3633203e-11
3.1080155e-10
8.4780711e-12
3.235177e-11
3.5539875e-10
4.4293397e-14
2.7649429e-11
3.640777e-10
-8.3970582e-12
2.7648469e-11
3.6410095e-10
-1.3822371e-11
3.2351127e-11
3.554636e-10
-1.0694943e-11
3.3635744e-11
3.1089212e-10
2.123975e-11
1.9573637e-10
2.0384218e-15
2.9220729e-11
8.6507473e-11
5.9384479e-10
-7.7852704e-15
3.8867867e-11
1.2280689e-10
8.7909914e-10
2.4192961e-11
1.1726084e-10
9.8636727e-10
1.1360867e-13
1.019918e-10
1.0059444e-09
-2.3984371e-11
1.019892e-10
1.0059987e-09
-3.8712874e-11
1.172587e-10
9.8652083e-10
-2.9145507e-11
1.2281357e-10
8.7932128e-10
8.6509581e-11
5.9404645e-10
3.1807415e-15
4.53014e-11
1.9064919e-10
9.7859088e-10
-2.7998759e-14
6.0409049e-11
2.5356734e-10
1.3781286e-09
3.7931623e-11
2.4050972e-10
1.5237767e-09
1.6518593e-13
2.1169746e-10
1.5482957e-09
-3.7626586e-11
2.1169296e-10
1.5483678e-09
-6.0176468e-11
2.4050513e-10
1.5239828e-09
-4.5179077e-11
2.5357865e-10
1.3784355e-09
1.9064968e-10
9.7888551e-10
1.1610642e-15
5.9108433e-11
3.2569683e-10
1.3399434e-09
-5.6638133e-14
7.8138244e-11
4.1183792e-10
1.8074474e-09
4.9256625e-11
3.8790773e-10
1.9714518e-09
2.0196385e-13
3.4472444e-10
1.9961142e-09
-4.88815e-11
3.4471826e-10
1.996194e-09
-7.7845202e-11
3.879002e-10
1.9716827e-09
-5.8942659e-11
4.118535e-10
1.807801e-09
3.2569443e-10
1.3402999e-09
-3.5699844e-15
7.051226e-11
4.8179342e-10
1.6687337e-09
-9.104357e-14
9.1810189e-11
5.8333142e-10
2.1670668e-09
5.7960772e-11
5.4544396e-10
2.3334629e-09
2.2711475e-13
4.8877231e-10
2.35471e-09
-5.7536443e-11
4.8876491e-10
2.3547906e-09
-9.1470977e-11
5.4543352e-10
2.3336989e-09
-7.0307278e-11
5.833506e-10
2.1674383e-09
4.8178764e-10
1.6691252e-09
-1.0596532e-14
7.9112237e-11
6.4717042e-10
1.9567847e-09
-1.290016e-13
1.0115682e-10
7.5335679e-10
2.4578513e-09
6.3939165e-11
6.992132e-10
2.614316e-09
2.4359111e-13
6.3136754e-10
2.6297959e-09
-6.3481355e-11
6.3135952e-10
2.6298729e-09
-1.007827e-10
6.9920036e-10
2.6145439e-09
-7.8872221e-11
7.5337891e-10
2.4582198e-09
6.4716142e-10
1.9571896e-09
-1.923214e-14
8.4397123e-11
8.0888835e-10
2.1971234e-09
-1.6879323e-13
1.0621914e-10
9.0732179e-10
2.6819697e-09
6.7294297e-11
8.3621628e-10
2.819096e-09
2.5380954e-13
7.6065696e-10
2.827563e-09
-6.6814477e-11
7.6064896e-10
2.8276338e-09
-1.0581873e-10
8.3620192e-10
2.8193076e-09
-8.4126113e-11
9.0734669e-10
2.6823207e-09
8.0887649e-10
2.1975254e-09
-2.8771097e-14
8.6053914e-11
2.3843176e-09
-2.0735783e-13
9.5332985e-10
1.0739195e-10
2.8433892e-09
1.0315154e-09
6.8301881e-11
2.9534942e-09
9.451706e-10
2.5948978e-13
2.9547395e-09
8.6612913e-10
-6.7808259e-11
2.9548028e-09
8.6612153e-10
-1.0697176e-10
2.9536849e-09
9.4515595e-10
-8.5753639e-11
2.8437127e-09
1.0315419e-09
2.3847046e-09
-3.8715592e-14
9.5331934e-10
6.2613971e-12
1.3011066e-11
1.7638349e-10
4.2789107e-15
8.2359155e-12
2.1756617e-11
2.8707041e-10
5.0806134e-12
2.1034697e-11
3.3751935e-10
6.141218e-14
1.7084758e-11
3.5201214e-10
-4.9698176e-12
1.7083516e-11
3.5204866e-10
-8.1581848e-12
2.1032591e-11
3.3761937e-10
-6.2294931e-12
2.175682e-11
2.8720661e-10
1.3009778e-11
1.7649402e-10
3.0789827e-15
1.7394682e-11
5.2113018e-11
5.3735313e-10
-4.970423e-15
2.3884634e-11
7.9076208e-11
8.1528959e-10
1.5307603e-11
7.5998237e-11
9.3998076e-10
1.5717791e-13
6.3212727e-11
9.7496682e-10
-1.5021973e-11
6.320861e-11
9.7505279e-10
-2.3678938e-11
7.599154e-11
9.4021885e-10
-1.7300444e-11
7.907445e-11
8.1562516e-10
5.210275e-11
5.3764699e-10
6.0318238e-15
2.7306031e-11
1.1517827e-10
8.8824597e-10
-2.6375385e-14
3.8085562e-11
1.6353196e-10
1.2828933e-09
2.4944373e-11
1.5600577e-10
1.4569103e-09
2.280184e-13
1.318879e-10
1.5043369e-09
-2.452698e-11
1.3187985e-10
1.5044516e-09
-3.7776578e-11
1.5599257e-10
1.4572314e-09
-2.7152046e-11
1.6352689e-10
1.2833585e-09
1.1515491e-10
8.886766e-10
4.6964922e-15
3.6216642e-11
1.9838824e-10
1.2205759e-09
-5.9115675e-14
5.0660274e-11
2.6669985e-10
1.6898358e-09
3.3632909e-11
2.5234102e-10
1.8921439e-09
2.7801667e-13
2.1614581e-10
1.9452112e-09
-3.3120641e-11
2.1613368e-10
1.9453388e-09
-5.0270984e-11
2.5232047e-10
1.8925051e-09
-3.6007458e-11
2.6669087e-10
1.6903735e-09
1.9835016e-10
1.2210982e-09
-1.0492579e-15
4.4140832e-11
2.9636429e-10
1.5267172e-09
-1.0037416e-13
6.1455603e-11
3.7995482e-10
2.0364971e-09
4.1154418e-11
3.5646528e-10
2.2496399e-09
3.1160314e-13
3.0885156e-10
2.3028471e-09
-4.05766e-11
3.0883587e-10
2.3029767e-09
-6.1005428e-11
3.5643759e-10
2.2500106e-09
-4.3881835e-11
3.799422e-10
2.0370634e-09
2.9631212e-10
1.5272919e-09
-1.0520693e-14
5.0900829e-11
4.0253174e-10
1.7998641e-09
-1.4767607e-13
7.0225503e-11
4.9460989e-10
2.3238716e-09
4.7311453e-11
4.6012905e-10
2.5335663e-09
3.3293907e-13
4.0291508e-10
2.5827109e-09
-4.6690203e-11
4.0289674e-10
2.5828351e-09
-6.9729898e-11
4.6009541e-10
2.5339258e-09
-5.0597381e-11
4.9459481e-10
2.3244347e-09
4.0246788e-10
1.8004594e-09
-2.2981051e-14
5.6166908e-11
5.0954381e-10
2.0341434e-09
-1.989433e-13
7.6821964e-11
6.0204464e-10
2.5538799e-09
5.1992572e-11
5.5567294e-10
2.7483815e-09
3.4545623e-13
4.9159894e-10
2.7905263e-09
-5.1343999e-11
4.9157912e-10
2.7906409e-09
-7.6292792e-11
5.5563523e-10
2.7487166e-09
-5.5824215e-11
6.0202936e-10
2.5544176e-09
5.0947132e-10
2.0347352e-09
-3.7441479e-14
5.9512412e-11
2.224691e-09
-2.5065156e-13
6.0990866e-10
8.116608e-11
2.7296625e-09
6.9411774e-10
5.5145069e-11
2.898768e-09
6.3642007e-10
3.5165795e-13
2.9322493e-09
5.6888251e-10
-5.4480618e-11
2.932352e-09
5.6886217e-10
-8.0612054e-11
2.8990711e-09
6.3638049e-10
-5.9132938e-11
2.7301593e-09
6.9410359e-10
2.2252614e-09
-5.3236696e-14
6.0983475e-10
3.9556707e-12
8.0335337e-12
1.6438847e-10
5.8116693e-15
5.0719274e-12
1.4500765e-11
2.7145338e-10
3.0829555e-12
1.429814e-11
3.2521019e-10
8.7333674e-14
1.1294048e-11
3.4371371e-10
-2.9278939e-12
1.1291948e-11
3.4377194e-10
-4.967516e-12
1.4290864e-11
3.2536812e-10
-3.9163379e-12
1.4492129e-11
2.716633e-10
8.0210756e-12
1.6455226e-10
4.3441623e-15
1.0864237e-11
3.2780953e-11
5.0173824e-10
3.2269627e-15
1.4891335e-11
5.2848854e-11
7.7291441e-10
9.6389983e-12
5.1615346e-11
9.079159e-10
2.2312446e-13
4.1855817e-11
9.5382092e-10
-9.2383943e-12
4.1847248e-11
9.53959e-10
-1.4614481e-11
5.1591905e-11
9.0829389e-10
-1.0747198e-11
5.2815365e-11
7.7343464e-10
3.2733729e-11
5.0217692e-10
1.0224954e-14
1.7007846e-11
7.306889e-11
8.3096378e-10
-1.3595103e-14
2.4046823e-11
1.0948874e-10
1.2192144e-09
1.6138131e-11
1.0592037e-10
1.410514e-09
3.2305299e-13
8.7466617e-11
1.4745412e-09
-1.5552938e-11
8.7448417e-11
1.4747264e-09
-2.3630817e-11
1.0587561e-10
1.4110255e-09
-1.6816654e-11
1.0942161e-10
1.2199381e-09
7.2973572e-11
8.3160913e-10
1.0968569e-14
2.2617273e-11
1.266069e-10
1.1444643e-09
-4.3646859e-14
3.2502721e-11
1.7893495e-10
1.6105042e-09
2.2344199e-11
1.7145048e-10
1.8367723e-09
3.9290348e-13
1.4370535e-10
1.9109237e-09
-2.1627265e-11
1.4367653e-10
1.9111309e-09
-3.1978842e-11
1.7138279e-10
1.8373495e-09
-2.2358035e-11
1.7883209e-10
1.6113422e-09
1.264591e-10
1.1452488e-09
5.8574642e-15
2.7796426e-11
1.9020113e-10
1.435412e-09
-8.5438507e-14
4.0227088e-11
2.557149e-10
1.9472865e-09
2.811208e-11
2.4272065e-10
2.1904847e-09
4.3898635e-13
2.0615915e-10
2.2680664e-09
-2.7305603e-11
2.0612036e-10
2.2682774e-09
-3.9621998e-11
2.4263148e-10
2.1910783e-09
-2.7475982e-11
2.555796e-10
1.9481699e-09
1.9000379e-10
1.4362761e-09
-4.8537628e-15
3.2510575e-11
2.5995653e-10
1.6977352e-09
-1.370896e-13
4.7088576e-11
3.3444095e-10
2.2305675e-09
3.32835e-11
3.1456304e-10
2.4755289e-09
4.6728301e-13
2.7053614e-10
2.5511501e-09
-3.241942e-11
2.7048918e-10
2.551353e-09
-4.642365e-11
3.1445619e-10
2.4761053e-09
-3.2135491e-11
3.3428035e-10
2.2314458e-09
2.5971766e-10
1.6986303e-09
-2.0249298e-14
3.6591063e-11
3.3155103e-10
1.9261546e-09
-1.9673989e-13
5.2963122e-11
4.098696e-10
2.4620792e-09
3.7721116e-11
3.8228011e-10
2.6959064e-09
4.8276367e-13
3.3282681e-10
2.7654739e-09
-3.6822726e-11
3.3277413e-10
2.7656614e-09
-5.2254849e-11
3.8216095e-10
2.6964439e-09
-3.6167542e-11
4.0969368e-10
2.462917e-09
3.3128112e-10
1.9270433e-09
-3.9179897e-14
3.9696465e-11
2.1161949e-09
-2.6146779e-13
4.0061213e-10
5.7685637e-11
2.6445096e-09
4.7703329e-10
4.1286402e-11
2.855666e-09
4.4178144e-10
4.8915169e-13
2.9164284e-09
3.8944495e-10
-4.0370221e-11
2.9165964e-09
3.8938911e-10
-5.6945723e-11
2.8561519e-09
4.4165563e-10
-3.9227719e-11
2.6452825e-09
4.768525e-10
2.1170497e-09
-6.1072374e-14
4.0032621e-10
2.5938689e-12
5.1957317e-12
1.5658998e-10
8.894121e-15
3.2635912e-12
9.9065485e-12
2.6087711e-10
1.9638438e-12
1.0070822e-11
3.1643911e-10
1.2712827e-13
7.9511302e-12
3.375993e-10
-1.7418669e-12
7.9462694e-12
3.3769467e-10
-3.1221757e-12
1.0048984e-11
3.1669944e-10
-2.5469723e-12
9.8717401e-12
2.6121636e-10
5.1528221e-12
1.568468e-10
5.6586056e-15
7.0621467e-12
2.1350499e-11
4.7849695e-10
2.4371717e-14
9.6154704e-12
3.6243041e-11
7.4402459e-10
6.2727752e-12
3.6406123e-11
8.8492329e-10
3.2453922e-13
2.950831e-11
9.3821198e-10
-5.6978385e-12
2.9487913e-11
9.3843974e-10
-9.2401066e-12
3.6336069e-11
8.8554907e-10
-6.9226303e-12
3.6120024e-11
7.4486888e-10
2.1203468e-11
4.7918796e-10
1.5675689e-14
1.0995164e-11
4.7895571e-11
7.9339351e-10
3.0032651e-14
1.5592585e-11
7.5363126e-11
1.1754969e-09
1.0659823e-11
7.4834661e-11
1.3770182e-09
4.6923539e-13
6.1757516e-11
1.4524826e-09
-9.8201303e-12
6.171401e-11
1.4527897e-09
-1.5028877e-11
7.4702988e-11
1.3778673e-09
-1.0769153e-11
7.5124269e-11
1.1766742e-09
4.761028e-11
7.9441288e-10
2.0282733e-14
1.4584689e-11
8.3518003e-11
1.094235e-09
2.2149302e-14
2.1225214e-11
1.2365275e-10
1.555574e-09
1.4983609e-11
1.2140813e-10
1.7964404e-09
5.6947273e-13
1.0168542e-10
1.88541e-09
-1.3956615e-11
1.0161613e-10
1.8857549e-09
-2.0516216e-11
1.2121196e-10
1.7974002e-09
-1.4280985e-11
1.2329276e-10
1.5569385e-09
8.3084385e-11
1.0954759e-09
1.7755566e-14
1.7946338e-11
1.262769e-10
1.3747063e-09
4.658113e-16
2.6544214e-11
1.7750461e-10
1.8848367e-09
1.9167095e-11
1.7240626e-10
2.1468637e-09
6.3438952e-13
1.4633301e-10
2.2419515e-09
-1.8014998e-11
1.4623905e-10
2.2423039e-09
-2.5726791e-11
1.7215099e-10
2.1478511e-09
-1.7573401e-11
1.7703507e-10
1.8862742e-09
1.2570623e-10
1.3760729e-09
7.9123023e-15
2.1104939e-11
1.7375982e-10
1.6291922e-09
-4.487105e-14
3.150106e-11
2.3338442e-10
2.1642916e-09
2.3112076e-11
2.2436024e-10
2.431964e-09
6.7275086e-13
1.9286218e-10
2.5270603e-09
-2.1882207e-11
1.9274739e-10
2.5273997e-09
-3.0604884e-11
2.2405712e-10
2.4329218e-09
-2.0669963e-11
2.3282826e-10
2.1657177e-09
1.7307019e-10
1.6306053e-09
-8.8713981e-15
2.3984446e-11
2.2325189e-10
1.8527802e-09
-1.0213883e-13
3.6028599e-11
2.8786688e-10
2.3955526e-09
2.6716104e-11
2.7413737e-10
2.6554418e-09
6.9191271e-13
2.3864294e-10
2.7457174e-09
-2.544309e-11
2.3851283e-10
2.746031e-09
-3.5076588e-11
2.7380115e-10
2.6563334e-09
-2.3493776e-11
2.8725425e-10
2.3969082e-09
2.2247223e-10
1.8541783e-09
-3.080257e-14
2.6340276e-11
2.0412461e-09
-1.7515841e-13
2.7203559e-10
3.9997824e-11
2.581053e-09
3.3766591e-10
2.9854449e-11
2.8209586e-09
3.1898814e-10
6.9751963e-13
2.9029247e-09
2.8130355e-10
-2.8562821e-11
2.9032054e-09
2.8116416e-10
-3.9005518e-11
2.8217621e-09
3.1863367e-10
-2.5797119e-11
2.582298e-09
3.3703031e-10
2.042584e-09
-5.8120148e-14
2.7119894e-10
1.8158163e-12
3.5689966e-12
1.5118664e-10
1.8525145e-14
2.2935931e-12
7.0457515e-12
2.5335358e-10
1.4071326e-12
7.4476197e-12
3.0987796e-10
1.9070669e-13
6.0347473e-12
3.3278098e-10
-1.0783555e-12
6.021921e-12
3.3294182e-10
-2.0968231e-12
7.3878845e-12
3.1033003e-10
-1.7607046e-12
6.9408116e-12
2.5393943e-10
3.4509924e-12
1.5162826e-10
6.8502063e-15
4.8785432e-12
1.471544e-11
4.6238825e-10
8.3712596e-14
6.6681975e-12
2.5867722e-11
7.2341296e-10
4.4499007e-12
2.6925005e-11
8.676642e-10
4.86931e-13
2.2322645e-11
9.2588705e-10
-3.5975842e-12
2.2271302e-11
9.2627487e-10
-6.1481131e-12
2.6733606e-11
8.6875388e-10
-4.7205863e-12
2.5507575e-11
7.2487459e-10
1.4309651e-11
4.635867e-10
2.2017237e-14
7.5174961e-12
3.3099109e-11
7.6733696e-10
1.5538112e-13
1.0730659e-11
5.3954429e-11
1.1441971e-09
7.5244937e-12
5.5395368e-11
1.3517541e-09
7.0332481e-13
4.6647833e-11
1.4349785e-09
-6.2810406e-12
4.6540963e-11
1.4355044e-09
-9.9530732e-12
5.5037661e-11
1.3532353e-09
-7.2705151e-12
5.3268692e-11
1.1462305e-09
3.2315997e-11
7.6910347e-10
3.2558033e-14
9.8845129e-12
5.7889437e-11
1.0593433e-09
2.1685527e-13
1.4545375e-11
8.8815996e-11
1.5160516e-09
1.0559864e-11
9.0016496e-11
1.7658048e-09
8.5179632e-13
7.6778539e-11
1.8649873e-09
-9.0427828e-12
7.6610523e-11
1.8655799e-09
-1.3572126e-11
8.9488511e-11
1.7674787e-09
-9.563517e-12
8.7796231e-11
1.5184023e-09
5.6704193e-11
1.061489e-09
3.519852e-14
1.2088254e-11
8.784014e-11
1.3324107e-09
2.5658285e-13
1.8176239e-11
1.2797025e-10
1.8395945e-09
1.3532655e-11
1.2812622e-10
2.1133976e-09
9.4591239e-13
1.1056047e-10
2.2207563e-09
-1.1836898e-11
1.103345e-10
2.2213627e-09
-1.7059935e-11
1.2744594e-10
2.1151167e-09
-1.1704322e-11
1.2665255e-10
1.8420623e-09
8.6279493e-11
1.3347644e-09
2.8897839e-14
1.4176878e-11
1.2137806e-10
1.5812104e-09
2.6699352e-13
2.1627487e-11
1.6898292e-10
2.1158283e-09
1.6398526e-11
1.67248e-10
2.3980711e-09
9.9889258e-13
1.4594864e-10
2.5070717e-09
-1.4596753e-11
1.4567407e-10
2.5076557e-09
-2.0410204e-11
1.6644744e-10
2.3997338e-09
-1.373689e-11
1.6743213e-10
2.1182648e-09
1.1950398e-10
1.5836297e-09
1.420524e-14
1.6125036e-11
1.5672211e-10
1.8010671e-09
2.4394572e-13
2.488016e-11
2.0948206e-10
2.3462983e-09
1.9100401e-11
2.0513594e-10
2.6233336e-09
1.0219807e-12
1.8105207e-10
2.7286923e-09
-1.7245959e-11
1.8074189e-10
2.7292311e-09
-2.3594091e-11
2.0425446e-10
2.6248745e-09
-1.5632778e-11
2.0777897e-10
2.3486e-09
1.5461577e-10
1.8034422e-09
-8.3903421e-15
1.7762986e-11
1.9879349e-09
1.8158176e-13
1.9208866e-10
2.7857565e-11
2.533293e-09
2.4714746e-10
2.1552536e-11
2.792604e-09
2.397955e-10
1.0239424e-12
2.8903521e-09
2.141533e-10
-1.9683036e-11
2.8908328e-09
2.138215e-10
-2.6522943e-11
2.7939848e-09
2.3887161e-10
-1.7218717e-11
2.5353911e-09
2.4538166e-10
1.9901839e-09
-3.8753842e-14
1.8983591e-10
1.3531648e-12
2.7634279e-12
1.4702019e-10
4.9856782e-14
1.79247e-12
5.3110678e-12
2.4760321e-10
1.1843898e-12
5.7860701e-12
3.0469997e-10
2.9511503e-13
4.8668349e-12
3.2880342e-10
-6.7516193e-13
4.8304685e-12
3.2908163e-10
-1.5017959e-12
5.6236262e-12
3.0553303e-10
-1.2864319e-12
4.9915528e-12
2.4873251e-10
2.4107439e-12
1.4792304e-10
8.0443985e-15
3.5752246e-12
1.1202042e-11
4.5011551e-10
2.5890736e-13
5.076228e-12
1.950781e-11
7.0771522e-10
3.5958071e-12
2.0894864e-11
8.5403583e-10
7.5515674e-13
1.7913936e-11
9.156806e-10
-2.2784326e-12
1.7781801e-11
9.1635713e-10
-4.3167551e-12
2.0371776e-11
8.5604405e-10
-3.4004576e-12
1.8470258e-11
7.1047958e-10
1.0081641e-11
4.524784e-10
3.6944113e-14
5.4241969e-12
2.4952337e-11
7.476471e-10
5.1537714e-13
8.0231364e-12
4.0702909e-11
1.120403e-09
5.9248921e-12
4.2979447e-11
1.3317677e-09
1.0903493e-12
3.7316413e-11
1.4204106e-09
-4.0102018e-12
3.7054855e-11
1.4213319e-09
-6.9070281e-12
4.2021958e-11
1.334482e-09
-5.1855265e-12
3.8839594e-11
1.1241397e-09
2.2846965e-11
7.5109415e-10
5.8472232e-14
7.0219161e-12
4.3355839e-11
1.0331478e-09
7.7007303e-13
1.0713262e-11
6.7040506e-11
1.4860226e-09
8.1486043e-12
6.9864667e-11
1.7414843e-09
1.3177923e-12
6.12805e-11
1.847854e-09
-5.8233329e-12
6.0881686e-11
1.8488942e-09
-9.3382576e-12
6.8482166e-11
1.7445334e-09
-6.7537553e-12
6.4368867e-11
1.4902886e-09
4.0227305e-11
1.0372859e-09
6.9045433e-14
8.4698817e-12
6.5501119e-11
1.3008081e-09
9.8751599e-13
1.3226659e-11
9.669159e-11
1.8051866e-09
1.028288e-11
9.9525176e-11
2.0866808e-09
1.4582881e-12
8.8106143e-11
2.2027553e-09
-7.6980102e-12
8.7581168e-11
2.2038196e-09
-1.1671895e-11
9.7778671e-11
2.0897941e-09
-8.1891173e-12
9.3320849e-11
1.8096275e-09
6.1444949e-11
1.3052896e-09
6.8063628e-14
9.8269373e-12
9.0278553e-11
1.5454627e-09
1.1433449e-12
1.5600159e-11
1.2787524e-10
2.0788715e-09
1.2325974e-11
1.3008257e-10
2.3707879e-09
1.5325157e-12
1.1619964e-10
2.4897717e-09
-9.5972507e-12
1.1557213e-10
2.4907945e-09
-1.3926499e-11
1.2806192e-10
2.3737798e-09
-9.536545e-12
1.2397367e-10
2.083222e-09
8.5473634e-11
1.550008e-09
5.6448384e-14
1.1096723e-11
1.1645297e-10
1.7625732e-09
1.2227601e-12
1.7849843e-11
1.5885783e-10
2.3085626e-09
1.4261699e-11
1.598295e-10
2.5971748e-09
1.5583675e-12
1.4409623e-10
2.7134991e-09
-1.1474159e-11
1.4339662e-10
2.7144391e-09
-1.6101966e-11
1.5763647e-10
2.5999278e-09
-1.0790481e-11
1.546241e-10
2.3126381e-09
1.1111583e-10
1.7669734e-09
3.6086845e-14
1.2163767e-11
1.9481995e-09
1.2010999e-12
1.4282354e-10
1.9944369e-11
2.4964477e-09
1.8792258e-10
1.6044391e-11
2.7690941e-09
1.8723941e-10
1.5496793e-12
2.8784801e-09
1.7046296e-10
-1.3256969e-11
2.8793151e-09
1.6972094e-10
-1.814714e-11
2.7715418e-09
1.8496972e-10
-1.1827895e-11
2.5001289e-09
1.8356707e-10
1.9523063e-09
8.7467948e-15
1.3715681e-10
1.12705e-12
2.7043435e-12
1.4304064e-10
1.4815467e-13
1.6086086e-12
4.4137554e-12
2.4270789e-10
1.1977867e-12
4.738313e-12
3.0037248e-10
4.8068304e-13
4.0895145e-12
3.2543101e-10
-3.1795211e-13
3.9661846e-12
3.2591408e-10
-9.924992e-13
4.2293871e-12
3.0197819e-10
-1.2451734e-12
3.6135338e-12
2.4537166e-10
1.5066255e-12
1.4519829e-10
-2.7050434e-14
2.8541441e-12
1.0476359e-11
4.3871787e-10
7.7147976e-13
4.3832323e-12
1.6052952e-11
6.9454693e-10
3.4316739e-12
1.7038983e-11
8.4268672e-10
1.2310671e-12
1.49517e-11
9.0701901e-10
-1.165876e-12
1.452981e-11
9.0819044e-10
-2.596077e-12
1.5228688e-11
8.4647494e-10
-1.4530175e-12
1.3244981e-11
6.9970507e-10
7.8215199e-12
4.4434124e-10
3.692435e-13
4.1810973e-12
2.2501484e-11
7.2992561e-10
1.5152673e-12
6.7352245e-12
3.3229216e-11
1.1006726e-09
5.4304191e-12
3.4958657e-11
1.3151529e-09
1.7737388e-12
3.1017231e-11
1.4080018e-09
-2.217548e-12
3.0237306e-11
1.4096157e-09
-4.5466249e-12
3.1979374e-11
1.3200604e-09
-3.2785957e-12
2.8540145e-11
1.1075765e-09
1.7313058e-11
7.3788114e-10
4.4287244e-13
5.2260411e-12
3.7916795e-11
1.0102576e-09
2.2489101e-12
8.7558196e-12
5.4367576e-11
1.4613545e-09
7.2065002e-12
5.6720519e-11
1.7212717e-09
2.1333113e-12
5.0780131e-11
1.8331643e-09