/*--------------------------------*- C++ -*----------------------------------*\
  =========                 |
  \\      /  F ield         | OpenFOAM: The Open Source CFD Toolbox
   \\    /   O peration     | Website:  https://openfoam.org
    \\  /    A nd           | Version:  13
     \\/     M anipulation  |
\*---------------------------------------------------------------------------*/
FoamFile
{
    format      ascii;
    class       volScalarField;
    location    "0.06";
    object      rho;
}
// * * * * * * * * * * * * * * * * * * * * * * * * * * * * * * * * * * * * * //

dimensions      [1 -3 0 0 0 0 0];

internalField   nonuniform List<scalar> 
51200
(
1
1
1
1
1
1
1
1
1
1
1
1
1
1
1
1
1
1
1
1
1
1
1
1
1
1
1
1
1
1
1
1
1
1
1
1
1
1
1
1
1
1
1
1
1
1
1
1
1
1
1
1
1
1
1
1
1
1
1
1
1
1
1
1
1
1
1
1
1
1
1
1
1
1
1
1
1
1
1
1
1
1
1
1
1
1
1
1
1
1
1
1
1
1
1
1
1
1
1
1
1
1
1
1
1
1
1
1
1
1
1
1
1
1
1
1
1
1
1
1
1
1
1
1
1
1
1
1
1
1
1
1
1
1
1
1
1
1
1
1
1
1
1
1
1
1
1
1
1
1
1
1
1
1
1
1
1
1
1
1
1
1
1
1
1
1
1
1
1
1
1
1
1
1
1
1
1
1
1
1
1
1
1
1
1
1
1
1
1
1
1
1
1
1
1
1
1
1
1
1
1
1
1
1
1
1
1
1
1
1
1
1
1
1
1
1
1
1
1
1
1
1
1
1
1
1
1
1
1
1
1
1
1
1
1
1
1
1
1
1
1
1
1
1
1
1
1
1
1
1
1
1
1
1
1
1
1
1
1
1
1
1
1
1
1
1
1
1
1
1
1
1
1
1
1
1
1
1
1
1
1
1
1
1
1
1
1
1
1
1
1
1
1
1
1
1
1
1
1
1
1
1
1
1
1
1
1
1
1
1
1
1
1
1
1
1
1
1
1
1
1
1
1
1
1
1
1
1
1
1
1
1
1
1
1
1
1
1
1
1
1
1
1
1
1
1
1
1
1
1
1
1
1
1
1
1
1
1
1
1
1
1
1
1
1
1
1
1
1
1
1
1
1
1
1
1
1
1
1
1
1
1
1
1
1
1
1
1
1
1
1
1
1
1
1
1
1
1
1
1
1
1
1
1
1
1
1
1
1
1
1
1
1
1
1
1
1
1
1
1
1
1
1
1
1
1
1
1
1
1
1
1
1
1
1
1
1
1
1
1
1
1
1
1
1
1
1
1
1
1
1
1
1
1
1
1
1
1
1
1
1
1
1
1
1
1
1
1
1
1
1
1
1
1
1
1
1
1
1
1
1
1
1
1
1
1
1
1
1
1
1
1
1
1
1
1
1
1
1
1
1
1
1
1
1
1
1
1
1
1
1
1
1
1
1
1
1
1
1
1
1
1
1
1
1
1
1
1
1
1
1
1
1
1
1
1
1
1
1
1
1
1
1
1
1
1
1
1
1
1
1
1
1
1
1
1
1
1
1
1
1
1
1
1
1
1
1
1
1
1
1
1
1
1
1
1
1
1
1
1
1
1
1
1
1
1
1
1
1
1
1
1
1
1
1
1
1
1
1
1
1
1
1
1
1
1
1
1
1
1
1
1
1
1
1
1
1
1
1
1
1
1
1
1
1
1
1
1
1
1
1
1
1
1
1
1
1
1
1
1
1
1
1
1.0000001
1
1.0000005
1.0002128
1.0000027
1
1
1
1
1
1
1.0000002
1
1
1
1
1
1
1
1
1
1
1
1
1
1
1
1
1
1
1
1
1
1
1
1
1
1
1
1
1
1
1
1
1
1
1
1
1
1
1
1
1
1
1
1
1
1
1
1
1
1
1
1
1.0000001
1
1
1.0004842
1.0000046
1
1
1
1
1
1
1.0000031
1.0000008
1
1
1
1
1
1
1
1
1
1
1
1
1
1
1
1
1
1
1
1
1
1
1
1
1
1
1
1
1
1
1
1
1
1
1
1
1
1
1
1
1
1
1
1
1
1
1
1
1.0004181
1.0000511
1
1
1
1.0055
1.0004671
1.0000048
1
1.0000001
1
1
1
1
1.0000431
1.0000088
1
1
1
1
1
1
1
1.0000002
1
1
1
1
1
1
1
1
1
1
1
1
1
1
1
1
1
1
1
1
1
1
1
1
1
1
1
1
1
1
1
1
1
1
1
1
1
1
1
1
1.0020855
1.0003863
1
1.0001467
1.0004219
1.010735
1.0001355
1.0009817
1
1.0000011
1
1.0000013
1
1.0005285
1.0002297
1.0000257
1
1
1
1
1
1.0000088
1.0000001
1.0000013
1
1
1
1
1
1
1
1
1
1
1
1
1
1
1
1
1
1
1
1
1
1
1
1
1
1
1
1
1
1
1
1
1
1
1
1
1
1
1
1
1.004228
1.0002354
1
1.0006618
1.0463071
1.0083268
1.0000004
1.0007869
1.0001544
1.0000004
1
1.000061
1
1.0029646
1.0002125
1.0000266
1
1
1
1
1
1
1.0000001
1.0000017
1
1
1
1
1
1
1
1
1
1
1
1
1
1
1
1
1
1
1
1
1
1
1
1
1
1
1
1
1
1
1
1
1
1
1
1
1
1
1
1
1.0173448
1.0000618
1.0000013
1.0001121
1.0681559
1.0068127
1.0000004
1.0000243
1.006844
1.0000505
1
1.0001381
1.0229088
1.003195
1.0000289
1.0000251
1
1
1
1.000025
1
1
1.0000035
1.0000012
1
1
1
1
1
1
1
1
1.0000001
1
1
1
1
1
1
1
1
1
1
1
1
1
1
1
1
1
1
1
1
1
1
1
1
1
1
1
1
1
1
1
1.0162719
1.0006182
1.0000002
1.0000002
1.068168
1.0079794
1.0015874
1.0000002
1.0052599
1.0000267
1
1.0000024
1.0681561
1.0026058
1.0000001
1.0000043
1.0015364
1
1.0000001
1.0000256
1.0138776
1
1.0000054
1.0000003
1.0000039
1
1
1.000005
1
1
1
1
1.0000002
1
1
1
1
1
1
1
1
1
1
1
1
1
1
1
1
1
1
1
1
1
1
1
1
1
1
1
1
1
1
1
1.0063126
1.0012067
1
1.0007353
1.0681748
1.0094417
1.0163896
1.0464583
1.0028179
1.0000209
1
1
1.0681719
1.0030654
1
1
1.0003141
1
1.0000001
1
1.0650118
1.0013738
1.0000053
1
1.0000022
1
1
1.0000055
1.0082177
1.0003436
1
1
1.0000002
1
1.0000003
1.000009
1
1
1.0000001
1
1
1
1
1.0000001
1
1
1
1
1
1
1
1
1
1
1
1
1
1
1
1
1
1
1
1
1.0029769
1.0008351
1
1.0020134
1.0537994
1.0088472
1.0178739
1.0725614
1.0003052
1.0000295
1.0000125
1
1.0681727
1.0038631
1.0000003
1.0280871
1.0000029
1
1
1
1.0681652
1.0001956
1.0000038
1
1.0000008
1
1
1
1.0599597
1.0008213
1
1
1.0000001
1
1.0000002
1.0000021
1.0124149
1.0002182
1.0000001
1
1
1
1.0000001
1.0000137
1.0003238
1.0000176
1
1
1
1
1
1.0000024
1.0000023
1.0000004
1
1
1
1
1
1
1
1
1
1
1.0025722
1.0001088
1.0000026
1
1.0088528
1.0015748
1.0259118
1.0737544
1.0000002
1.0000797
1.0000791
1
1.0463275
1.0043311
1.0003018
1.0813272
1.0000002
1.0000033
1.0000307
1
1.0528042
1
1
1.0488698
1.0000003
1.0000006
1
1
1.0610418
1.0002614
1
1.0022471
1.0000001
1
1
1
1.0541406
1.0005549
1
1
1
1
1
1.0000088
1.0098524
1.000295
1
1
1
1
1
1.0000028
1.000041
1.0000024
1
1
1
1
1
1.0000001
1
1
1
1
1.0047169
1
1
1.0285064
1.0004457
1.000445
1.0287267
1.0808882
1.0000002
1.0000691
1.0000305
1
1.0037409
1.0027834
1.0037731
1.0816449
1.0000002
1.0000028
1.0000134
1
1.0069804
1.0000178
1.0024211
1.0816874
1.0000002
1.0000054
1.0000844
1
1.0217843
1.0002841
1.0057803
1.0656776
1.0000001
1.0000132
1.000121
1
1.0309157
1.0008773
1.002057
1.0072232
1
1.0000082
1.0000432
1
1.0074181
1.0006553
1
1
1
1
1
1
1
1
1
1
1
1
1
1
1
1
1
1
1.0053989
1
1
1.9440244
1.0297052
1.000013
1.0129472
1.0355685
1.0000003
1.0000069
1
1.9562608
1.0100733
1.0000133
1.0125341
1.0517771
1.0000001
1.000001
1
1.9356774
1.0000144
1.0000142
1.0052692
1.0817251
1.0000001
1.0000019
1
1.9336828
1.0000263
1.0000677
1.0057059
1.0817032
1
1
1.0029075
1.8848743
1.0000776
1.0005569
1.002907
1.0585258
1
1.0000027
1.0112825
1.6460667
1.0001577
1.0005791
1.0001499
1.0036769
1
1.0000081
1.0188085
1.5173054
1.00009
1
1
1
1
1.0000914
1.0240985
1.2859749
1
1
1.0000002
1
1.0020417
1
1
2.0202501
1.6299298
1.0000126
1.000546
1.0025786
1.0025173
1
1
2.1585219
1.5890952
1.0000106
1.0109262
1.0376038
1.0000024
1.0000006
1
2.159839
1.544803
1.000009
1.0068116
1.0817163
1
1
1.0737881
1.8391356
1.5243089
1.0014419
1.0038796
1.0817246
1
1
1.0136999
2.0989604
1.436126
1.000028
1.0024302
1.0485529
1
1
1
2.1772911
1.2874941
1.0005556
1.0000724
1.0010938
1
1.0000042
1.0000011
2.1746109
1.2121852
1.0000001
1
1
1
1.0000643
1.0000029
2.1731959
1.2353027
1.0000002
1.0000001
1
1.0000384
1.0000001
1
2.1191107
1.599463
1.0014664
1.0000755
1.0000693
1.0003735
1
1
2.1500811
1.656558
1.000009
1.0055224
1.0132534
1.0000039
1
1
2.1603278
1.6321297
1.0000065
1.0063139
1.0400385
1
1
1
2.182049
1.659324
1.0000024
1.0031419
1.0552602
1
1
1
2.1829931
1.6249854
1.0000005
1.001715
1.0096486
1
1
1
2.1817901
1.6012832
1
1
1
1
1.0000028
1.0000011
2.1793033
1.5074767
1.0000067
1.0000001
1
1
1.0000613
1.0000021
2.1764669
1.4687279
1.0000097
1.0000003
1
1.0000023
1
1.0864793
2.1847197
1.2911716
1.0136345
1.0005048
1.0000132
1.0000473
1
1.1149761
2.1847165
1.3221741
1.0053546
1.0016613
1.000755
1.0000118
1
1.1262041
2.1846971
1.3167509
1.0006206
1.0022224
1.0012983
1.0000024
1
1.1354289
2.1845947
1.331918
1.0001414
1.0015867
1.0038965
1
1
1.1347901
2.1842151
1.3112241
1
1.0006361
1.0011268
1
1
1.1267735
2.1834289
1.3021121
1
1
1
1
1
1.0865793
2.1821708
1.2343259
1
1
1
1
1
1.0892139
2.1800276
1.2225958
1.0000001
1.0000003
1
1.0000008
1
1.0807677
1.3756049
1.029024
1.0201014
1.0043247
1.0000268
1.0000117
1
1.0813658
1.5822888
1.0217168
1.0099696
1.0024019
1.0000666
1.0000353
1
1.060112
1.5636784
1.0154354
1.0026024
1.0004965
1.0000026
1.0000133
1
1.0648136
1.6745329
1.0067468
1.0004696
1.000238
1.0000036
1
1
1.076834
1.587519
1.0097564
1.0009392
1.0003174
1
1
1
1.0815745
1.6067025
1.009656
1.000593
1
1
1.0000002
1
1.0791962
1.5325974
1.008182
1.0002328
1
1
1.0000017
1
1.0957094
1.4930232
1.0170437
1
1
1.0000006
1.0000023
1.0078153
1.0511903
1.0031741
1.0031741
1.0187715
1.0130215
1.0001456
1.0000979
1.0042702
1.0249691
1.0040049
1.0033013
1.0078659
1.0055788
1.000267
1.000074
1.0046838
1.0322058
1.0018207
1.0015997
1.0010998
1.0010969
1.0001554
1
1.0042311
1.0603508
1.0034316
1.0012499
1.0016348
1.0018507
1.0001646
1
1.0017064
1.0775854
1.0014335
1.0011511
1.0035047
1.0018515
1.0000001
1
1.0012696
1.0779383
1.0014206
1.0010886
1.0035021
1.0001949
1
1
1.0038314
1.0801973
1.0010193
1.0009954
1.0016383
1.0000503
1.0000076
1.0000081
1.0043289
1.0819581
1.0006157
1.0009203
1.0006849
1.0001166
1.0000002
1.0000021
1.0084121
1.0511862
1.004368
1.1895906
1.0231684
1.014903
1.0002614
1.0000829
1.0072354
1.017638
1.006719
1.1684079
1.0429471
1.0108084
1.0001112
1.0006163
1.0104927
1.0206321
1.0251706
1.0759425
1.0316471
1.0046401
1.0000902
1.0000007
1.0034691
1.0378374
1.0181562
1.0318967
1.0063865
1.0009614
1.0000563
1.0000471
1.0071836
1.0336125
1.0177183
1.0093265
1.0022333
1.0010633
1.0002904
1.0009233
1.0220036
1.0339885
1.0024593
1.0011604
1.0020642
1.0024294
1.0006215
1.000001
1.0098957
1.0445565
1.0005694
1.001026
1.0033376
1.0019656
1.0000347
1.0000683
1.006835
1.0280681
1.0005038
1.0006041
1.0018993
1.000003
1.0000003
1.0000021
1.0011074
1.0153559
1.0050276
1.0499148
1.0292788
1.0147198
1.0002223
1.0000021
1.002352
1.0575829
1.1227429
1.3018438
1.1006303
1.01059
1.0001898
1.0019262
1.0099971
1.0459038
1.5307189
1.3331156
1.2095375
1.0036791
1.0000091
1.0069071
1.0212503
1.0398162
1.3971612
1.2354077
1.0959296
1.0010197
1.0001062
1.0033768
1.0139549
1.0287338
1.2648646
1.445659
1.0632956
1.0016432
1.0007913
1.0006718
1.0102184
1.0081881
1.2015059
1.5487212
1.0462662
1.0022352
1.000368
1.0002887
1.0033002
1.0004958
1.060478
1.0429503
1.0214742
1.0011756
1.0000014
1.0004694
1.0013299
1.000215
1.0094651
1.0029925
1.0110187
1.0003243
1.0000013
1.1883916
1.0029874
1.0030131
17.156108
31.142024
1.0005066
1.0051306
1.0037886
1.0124214
1.0083187
1.0227134
15.94084
30.895817
1.0004167
1.0036929
1.0000815
1.0019343
1.0097096
1.2177035
11.418521
28.895455
1.0000847
1.0000528
1.0000099
1.0084822
1.0111858
1.1872716
9.2994587
27.850116
1.0002276
1.0003268
1.0001479
1.0113823
1.0119319
1.1907011
7.4130025
23.945663
1.0002072
1.0003539
1.0005097
1.0002347
1.0211228
1.3812608
6.3619977
21.687528
1.0000293
1.0000054
1.0000016
1.0002079
1.0365556
1.3504524
4.6745953
14.588295
1.0000149
1.0000055
1.0000015
1.0004867
1.0369255
1.1486177
3.0007894
12.166975
1.0000132
1.0000022
1.0000014
1.2595208
1.0021448
1.0026567
135.52049
165.52325
1.0002063
1.0001167
1.0145468
1.0749724
1.0015271
1.0019592
140.75691
174.49521
1.0001167
1.0000961
1.0000603
1.0015271
1.0012757
1.6599317
138.3462
170.32448
1.0000961
1.0000642
1.0000175
1.003454
1.0010266
4.7988223
126.50459
173.34342
1.0002942
1.0000961
1.0001273
1.0075787
1.0012528
4.8575272
114.22885
171.29318
1.1368184
1.0020678
1.0000429
1.0002869
1.0004894
6.9364108
94.399196
161.77134
4.2711279
1.0005353
1.0000017
1.0002078
1.0126472
9.0730377
78.121938
163.04726
1.1191049
1.0000846
1.0000013
1.0006707
1.010275
7.056049
71.050901
139.59351
2.7770919
1.0001777
1.0000013
1.1452865
1.0008089
61.167568
200.85915
200.85915
46.609574
1.0002063
1.0417645
1.1060399
1.001301
75.466114
200.86824
200.85724
62.177823
1.0001167
1.0236934
1.0433086
1.0007236
75.094203
200.89187
200.90926
59.474975
1.0000961
1.0096485
1.0010266
1.0006558
80.251727
200.90926
200.92373
65.208286
1.0001536
1.0000847
1.0008249
1.000432
78.783528
200.9213
200.92777
61.257313
1.0000847
1.0000565
1.0053343
1.0004238
69.916133
200.92823
200.92213
68.730467
1.0448846
1.0001608
1.0097573
1.0011436
50.679815
200.16423
200.92314
69.564356
1.0048508
1.0009599
1.0002712
1.4636696
78.177108
185.36729
197.28566
80.09492
1.1986203
1.0000796
1.0359525
1.0005651
9.1416612
148.86574
154.33814
6.2258471
1.0004089
1.0167198
1.0334013
1.0006956
12.290465
150.59631
157.79243
10.949193
1.0003647
1.0254165
1.0150637
1.0004237
11.462366
148.8841
155.98927
10.335767
1.0003233
1.0110508
1.0105316
1.0004149
11.011034
145.2317
161.51048
14.405926
1.0001038
1.002098
1.0004316
1.0003957
8.7473227
141.70532
159.97067
10.047616
1.0000725
1.0000668
1.000884
1.0003923
9.7760698
127.31001
164.63348
14.693775
1.0000981
1.0000407
1.0072037
1.0004251
10.66876
113.79981
133.2404
21.061181
1.0003431
1.0056032
1.0048467
1.2012819
13.904907
88.008512
104.46523
23.700052
1.1815589
1.0252457
1.0327131
1.0004779
1.0004526
25.941605
39.955522
1.0018924
1.001761
1.0212027
1.0325769
1.0012396
1.0004201
26.92383
43.097976
1.0039035
1.0074738
1.0405662
1.0004237
1.0004205
1.0004229
24.357707
41.958964
1.0137554
1.1201923
1.0389712
1.0012644
1.0003957
1.0004102
22.220768
41.557703
1.0284156
1.1499983
1.011919
1.0003957
1.0003914
1.0003989
19.210103
37.960854
1.1716028
1.0791788
1.0000725
1.0003924
1.0003874
1.0006124
16.852219
34.219356
1.0493997
1.0001344
1.0001091
1.0052803
1.0004073
1.0006862
13.863686
28.734419
1.4849159
1.0003433
1.0007247
1.0214761
1.0015929
1.001748
9.7641737
18.590854
1.6764431
1.0005606
1.0037629
1.0050131
1.0004762
1.0579608
1.0037189
1.0124881
1.1214985
1.0362867
1.0230558
1.0232624
1.0004426
1.0134852
1.0990383
1.0499572
1.056057
1.0040455
1.0144616
1.0149154
1.0004107
1.0004229
1.2968188
1.3273327
1.0208173
1.007008
1.0486866
1.0105167
1.0003915
1.0004134
1.3836356
1.4624703
1.0333637
1.0814916
1.048693
1.0003915
1.0003873
1.0003916
1.3450281
1.4636728
1.0322454
1.1196461
1.0146218
1.0003874
1.0003834
1.0003896
1.0240727
1.3438774
1.0385717
1.119802
1.0009679
1.0088329
1.0020185
1.0004062
1.001779
1.0469269
1.0476509
1.1123159
1.0001259
1.0684678
1.0019317
1.000705
1.0026985
1.0203304
1.0370827
1.0996423
1.0001025
1.0050169
1.0043004
1.0377746
1.0002903
1.0000536
1.0553057
1.0536735
1.0381012
1.0036292
1.0004594
1.0412891
1.0004094
1.001013
1.0705292
1.0175128
1.0088664
1.0084025
1.0004473
1.0104222
1.0005794
1.0009721
1.0406621
1.009716
1.0415859
1.011724
1.0004511
1.0046195
1.0006492
1.0029209
1.0175772
1.0236649
1.0664591
1.0131617
1.0003834
1.0017398
1.0006973
1.003589
1.0046285
1.0459635
1.0024162
1.0003834
1.0003834
1.0007475
1.0048628
1.0053118
1.0041259
1.0626689
1.0078588
1.0038471
1.0005276
1.0004087
1.0033536
1.0057896
1.0038503
1.0700173
1.0001025
1.0456129
1.0122367
1.0006306
1.0007715
1.0064641
1.0060012
1.045792
1.0000918
1.0165251
1.0088719
1.0294855
1.0002845
1.0000009
1.0071705
1.033416
1.0402877
1.0047775
1.0016219
1.0452678
1.0003071
1.0006994
1.0686223
1.0390535
1.0090102
1.0023749
1.0004597
1.0101884
1.000404
1.000569
1.0686371
1.0107833
1.0330199
1.0082714
1.000686
1.00971
1.0004123
1.0006052
1.0142838
1.0380804
1.0667475
1.0148766
1.0003921
1.0043513
1.0004199
1.0006431
1.0023291
1.0216598
1.0007485
1.0036527
1.0003832
1.0012494
1.0005139
1.0002412
1.0001608
1.0000875
1.0007427
1.0066066
1.0017126
1.0004066
1.0030384
1.0007126
1.0031939
1.0007714
1.0001114
1.046548
1.019944
1.0015039
1.0014239
1.0010459
1.0066175
1.0001656
1.0000978
1.0130209
1.0075988
1.0178999
1.0006848
1.0000008
1.0000544
1.0075728
1.0182471
1.0023548
1.0079367
1.0452726
1.0004009
1.0009573
1.0367672
1.0390049
1.0158753
1.0005739
1.0005707
1.0043947
1.0004029
1.0033748
1.0684107
1.0108444
1.0293584
1.0049742
1.0012265
1.0061719
1.0004075
1.0023791
1.0166018
1.042417
1.0668059
1.0083548
1.0033743
1.0048329
1.0004162
1.0006866
1.0106805
1.0306575
1.0067679
1.0009818
1.0003921
1.0005952
1.0005229
1.0023452
1.0000875
1.0000844
1.0000843
1.0048516
1.0035171
1.000278
1.0009347
1.0003726
1.0055619
1.0000844
1.0000843
1.0698021
1.0162739
1.0010516
1.0018217
1.0003124
1.0009616
1.0000848
1.0000844
1.0023037
1.0019532
1.0044122
1.0005472
1.0000008
1.0000343
1.0022904
1.0017364
1.0017167
1.0076927
1.0452445
1.0028285
1.0002007
1.006611
1.0374745
1.0385144
1.0005002
1.0005796
1.0005157
1.0004071
1.0042309
1.0369835
1.0142962
1.011649
1.0035509
1.0010369
1.0018207
1.0004156
1.010079
1.0402818
1.0360031
1.0666984
1.0066421
1.0067022
1.0064869
1.0004199
1.006778
1.0413305
1.0624515
1.0529429
1.001119
1.0010238
1.000278
1.0004479
1.0205747
1.1078566
1.0000843
1.0000843
1.0005411
1.0025739
1.0002766
1.0014048
1.0238365
1.0105676
1.0000843
1.0000843
1.0524473
1.0073568
1.0003864
1.0067262
1.0074827
1.0000851
1.0000844
1.0000843
1.0004018
1.0001203
1.0007572
1.0001378
1.0000008
1.0000186
1.0016643
1
1.003157
1.0022034
1.009825
1.0083123
1.0001012
1.0023339
1.0283544
1.0263595
1.0058571
1.0007808
1.0008192
1.005421
1.0032069
1.0154384
1.0289243
1.0091159
1.002388
1.0006448
1.0005445
1.0004374
1.0128726
1.066763
1.0204447
1.0205054
1.0067022
1.0067088
1.0043904
1.0004405
1.022084
1.1251488
1.1125921
1.0692071
1.0018507
1.0013613
1.0009446
1.0004967
1.0359503
1.1499418
1.0428868
1.0658578
1.0003396
1.000603
1.0002774
1.000734
1.0484748
1.1073576
1.0000843
1.0103938
1.0215037
1.0012003
1.0002684
1.011897
1.063733
1.0001157
1.0000843
1.0003263
1.000044
1
1.0005739
1.000001
1.000001
1.0000023
1.000286
1
1.0059284
1.0008474
1.0004914
1.0085811
1.0000003
1.0021074
1.0244288
1.0028929
1.0060816
1.0024879
1.0008763
1.0092062
1.0022108
1.004936
1.0329926
1.009897
1.0020995
1.0036787
1.0005466
1.0043478
1.0101084
1.0614972
1.0050968
1.003339
1.0046156
1.0047962
1.0010556
1.0004848
1.0188006
1.1440879
1.0530036
1.0242901
1.0018058
1.0017539
1.0017988
1.000539
1.0304043
1.1499418
1.0983415
1.0664159
1.0003329
1.0003275
1.0012009
1.0005791
1.0369598
1.1499418
1.0238696
1.0574394
1.0020862
1.0001285
1.0004159
1.005057
1.0661823
1.1245956
1.0084164
1.0449214
1
1
1.00028
1.0000208
1.0000004
1
1
1
1.0048901
1.0016635
1.0003288
1.0025877
1
1.0008469
1.0075055
1
1.0060815
1.0042656
1.0003711
1.0092066
1.0011626
1.0015317
1.0329926
1.0092385
1.0042366
1.0067395
1.0025796
1.009373
1.0040329
1.0229093
1.0248007
1.0033223
1.0018468
1.0026746
1.0009033
1.0057095
1.0124046
1.0677579
1.0081566
1.0020574
1.0018675
1.0020831
1.00087
1.0005897
1.0163112
1.1499418
1.0239211
1.0085647
1.0006131
1.0006671
1.001841
1.0006164
1.0123946
1.149928
1.0329925
1.0173029
1.0001389
1.00016
1.0018576
1.0006318
1.0209934
1.1499141
1.026428
1.0271398
1
1
1.0000311
1.0000139
1
1
1
1
1.0011481
1.0019769
1.0004031
1
1
1
1
1
1.0036864
1.0041788
1.0003769
1.0034712
1.0003849
1.0021674
1.0167435
1.003727
1.0067395
1.0067395
1.0030945
1.0093804
1.0000514
1.0031002
1.0247247
1.00519
1.0041857
1.0030078
1.001965
1.0105707
1.0029091
1.0007962
1.0212289
1.0019269
1.0021388
1.0018072
1.0011875
1.0085433
1.0169904
1.060178
1.0125441
1.0009998
1.0013238
1.0015466
1.0014087
1.0015302
1.0132158
1.1195933
1.0112628
1.0007056
1.0002814
1.0010109
1.0018574
1.0006777
1.0033561
1.0953443
1.0099377
1.0006974
1
1
1
1.0000001
1
1
1
1
1.0000001
1.001159
1.0002806
1.000005
1.0000005
1
1
1
1.0006777
1.0025815
1.0012139
1.0002036
1.0000065
1.0007463
1.000282
1.0000011
1.0050415
1.0067395
1.0012116
1.0030895
1.0000002
1.000247
1.0087306
1.0050909
1.0045113
1.0048398
1.0103649
1.0105986
1.0000009
1.0001803
1.0211994
1.0036702
1.0016165
1.0012413
1.0076145
1.0125889
1.0125944
1.0029119
1.0210905
1.0018029
1.0006946
1.0010241
1.0021011
1.011666
1.0131983
1.0051609
1.0064158
1.0006971
1.0002178
1.001305
1.0013655
1.00339
1.0101313
1.0010192
1.0006986
1.0006986
1
1
1
1
1
1
1
1
1
1.0001311
1.0001006
1.0000203
1.0000017
1
1
1
1.0001012
1.000419
1.0015225
1.0001845
1.0000006
1
1.0002939
1
1.0006153
1.0045242
1.0006111
1.0000002
1.0000001
1.0001156
1.0046503
1.0014664
1.0009048
1.0080637
1.0090706
1.003248
1.0000002
1.0007905
1.0136576
1.0034593
1.0006013
1.0015848
1.0122114
1.0122529
1.0027108
1.0007959
1.0129089
1.002124
1.0001257
1.0001943
1.0088553
1.0122327
1.0060802
1.0013401
1.0262386
1.0014194
1.0001249
1.0002986
1.0017531
1.0121979
1.0108647
1.0023612
1.0288643
1.0013187
1
1
1
1
1
1
1
1
1.0000001
1
1
1.0000077
1.0000022
1
1
1
1.0000001
1.0000608
1.0010147
1.0000384
1.0000013
1
1.0001906
1.0000075
1.0031881
1.0006326
1.0013055
1.0001798
1
1.0001401
1.0018594
1.0000631
1.0042742
1.0046753
1.0036034
1.0002645
1.0001529
1.0067986
1.0035982
1.0005807
1.0063511
1.0018537
1.0087097
1.0046575
1.0011164
1.0178824
1.0171973
1.0010899
1.0242776
1.0001866
1.0121584
1.0121979
1.0008731
1.032402
1.0388801
1.0015815
1.0199849
1.0001869
1.0073953
1.0121657
1.0075285
1.0361826
1.0389375
1.0047521
1
1
1
1
1
1
1
1
1
1.0000053
1
1
1.000002
1
1
1
1.0003718
1.0000754
1.0014848
1.0000386
1.0000006
1.0000001
1.0000151
1.000001
1.0055424
1.0004939
1.001779
1.0003338
1
1.0001073
1.0000521
1.0000003
1.0241873
1.0062652
1.0010141
1.0005506
1.0002234
1.009459
1.0004699
1.000001
1.0405615
1.0076282
1.0017068
1.0010571
1.0005464
1.0382392
1.0140551
1.0003717
1.0490085
1.0204775
1.0070948
1.0054663
1.0003419
1.0389339
1.0353782
1.0017939
1.0490094
1.0147016
1.0078248
1.0107529
1.0018462
1.0389504
1.0389504
1.0056885
1
1
1
1
1
1
1
1
1
1.0000042
1.000103
1
1.000001
1
1
1
1.0005617
1.0000703
1.0045639
1.0007207
1
1.0000001
1
1
1.0054223
1.0004387
1.0012698
1.0004887
1
1.0000178
1.0000001
1
1.0345693
1.0076962
1.0010433
1.0012573
1.0000891
1.0042163
1
1.0000037
1.0490085
1.0294319
1.0017031
1.001422
1.0001865
1.0239992
1.0037533
1.0000352
1.0490107
1.0490085
1.0019915
1.0007701
1.000341
1.0331541
1.0109989
1.000588
1.0490085
1.0352748
1.0056522
1.0014392
1.0000651
1.0389339
1.0274788
1.0026567
1
1
1
1
1
1
1
1
1
1.0000006
1.0001578
1
1.0000001
1
1
1
1.000249
1.0000749
1.0046307
1.0014946
1
1
1
1
1.0026643
1.0008725
1.0005825
1.0005053
1.0000068
1
1
1
1.0178566
1.004127
1.0020724
1.0007427
1.0000095
1.0002861
1
1.0000104
1.0446307
1.0291429
1.0031263
1.0005536
1.0000471
1.0030279
1.0003762
1.0000221
1.049008
1.0343731
1.0059002
1.0000355
1.0003194
1.0079291
1.0007535
1.0000146
1.0490097
1.0255121
1.0117013
1.000055
1.0000606
1.0166125
1.0027975
1.0001107
1
1
1
1
1
1
1
1
1.0000036
1.0000002
1.000067
1
1
1
1
1
1.0000755
1.0000361
1.0024073
1.0009728
1
1
1
1
1.0003018
1.0015971
1.0005027
1.0014327
1
1
1
1
1.001367
1.0016691
1.0025107
1.0000468
1.0000099
1.0000443
1.0000318
1.0000119
1.0177296
1.0123202
1.0051587
1.0000166
1.0000164
1.000212
1.0015005
1.000024
1.0489969
1.005991
1.0134596
1.000017
1.000122
1.0003103
1.0020718
1.0000007
1.0396214
1.0056734
1.01427
1.0002183
1.0000625
1.0006545
1.0000435
1.000002
1
1
1
1
1
1
1
1
1
1
1.0000028
1
1
1
1
1
1.0000588
1.0000006
1.0001711
1.0001917
1.0000019
1
1
1
1.0000612
1.0028234
1.0024488
1.0017694
1
1
1
1
1.0000616
1.0030737
1.001902
1.0005857
1.0000156
1.0002299
1.0001746
1.0000112
1.003392
1.0002567
1.0040518
1.0027258
1.0000643
1.0016735
1.0037958
1.0000368
1.0373968
1.0008189
1.007422
1.0000236
1.0002014
1.0043742
1.0039571
1.0000007
1.019654
1.0002772
1.0106331
1.0008101
1.0001527
1.0010847
1.000003
1.0000026
1
1
1
1
1
1
1
1
1
1
1
1
1
1
1
1
1.0002329
1.0000262
1.0000055
1.0000034
1.0000012
1
1
1
1.0000616
1.0029334
1.0136334
1.0004132
1
1
1
1
1.010101
1.006687
1.0006844
1.0027862
1.0000132
1.000426
1.0001563
1.0000074
1.027131
1.0000774
1.000687
1.0050477
1.0004318
1.0044517
1.0039027
1.0000438
1.0339633
1.0000727
1.0003383
1.0010033
1.0007075
1.005364
1.0043872
1.0000006
1.012268
1.0000686
1.0004479
1.0006678
1.0012267
1.0036144
1.0000034
1.0000197
1
1
1
1
1
1
1
1
1
1
1
1
1
1
1
1
1.0005585
1.0024105
1
1.0000018
1.0000002
1
1
1
1.0039419
1.0305348
1.0133568
1
1
1
1
1
1.0263004
1.1487395
1.0056453
1.0003773
1.0000052
1.0003279
1.0000291
1.0000022
1.054828
1.1517761
1.000017
1.0019001
1.0009507
1.0046135
1.00233
1.0000182
1.0775956
1.1525531
1.0000147
1.0003588
1.0011136
1.005364
1.0036437
1.0000005
1.0413287
1.0648704
1.0000115
1.0001327
1.0014954
1.0053191
1.0000037
1.0000547
1
1
1
1
1
1
1
1
1.0000013
1.0000008
1.0000002
1
1
1
1
1
1.0007241
1.0026126
1
1
1
1
1
1
1.0031479
1.0384662
1.0267629
1.0010117
1
1
1
1
1.0086378
1.2580278
1.079075
1.0029673
1
1.0001158
1.0000019
1.0000001
1.0449471
1.4087746
1.0973312
1.0000121
1.0008935
1.0037019
1.000494
1.0000004
1.193
1.4112927
1.1339917
1.0000098
1.0010009
1.005364
1.0011551
1.0000004
1.3482536
1.4033194
1.148949
1.0000087
1.0010887
1.0053074
1.0002822
1.0000382
1
1
1
1
1
1
1
1
1.0000001
1.000001
1.0000006
1
1
1
1
1
1.0003092
1.001314
1.0003186
1.0000016
1.0000002
1
1
1
1.0013938
1.0272198
1.0980658
1.0102476
1
1
1
1
1.0013346
1.1043434
1.3252371
1.0202418
1
1.0000065
1.0000003
1
1.0155142
1.3582367
1.3804304
1.0019958
1.0007047
1.0013621
1.0000182
1
1.1537935
1.4114415
1.411443
1.0913814
1.0006318
1.0047107
1.0002452
1.0000019
1.389029
1.4115044
1.4115137
1.1455286
1.0006448
1.0047695
1.0004441
1.0000065
1
1
1
1
1
1
1
1
1
1.0000001
1.0000001
1
1
1
1
1
1.0000186
1.0001457
1.000118
1.000022
1.0000003
1
1
1
1.0007159
1.0091735
1.1171709
1.0067606
1.0000076
1
1
1
1.0004191
1.0335734
1.4107755
1.0206145
1
1
1
1
1.0021611
1.2686172
1.4114675
1.1015384
1.0006069
1.0000753
1.0000018
1
1.0652786
1.4114821
1.4115216
1.3768184
1.0006159
1.0026338
1.0000815
1.0000002
1.2380861
1.4115362
1.4115353
1.4113157
1.0006304
1.0024235
1.0003594
1.0000003
1
1
1
1
1
1
1
1
1
1
1.0000001
1
1
1
1
1
1.0000001
1.0000042
1.000046
1.0000068
1.0000001
1
1
1
1.0001056
1.0010546
1.0201651
1.0011669
1.0000072
1
1
1
1.0002549
1.0132048
1.2842799
1.0122984
1
1
1
1
1.0010464
1.0875346
1.4114875
1.067383
1.0016968
1.0001324
1.0000017
1
1.0180005
1.3301762
1.4115405
1.3745562
1.0079678
1.0011462
1.0000032
1
1.0680872
1.4115402
1.4115411
1.4115385
1.0082806
1.0012485
1.0001746
1.0000003
1
1
1
1
1
1
1
1
1
1
1
1
1
1
1
1
1
1
1.0000019
1.0000002
1
1
1
1
1
1.0000034
1.0002079
1.0000191
1.0000011
1
1
1
1.0000665
1.0007584
1.0255159
1.0017608
1
1
1
1
1.0000692
1.0026866
1.1858837
1.0173876
1.0028507
1.0005009
1.0000008
1
1.0006092
1.0565267
1.3807514
1.1032587
1.0122674
1.0011578
1
1
1.0014386
1.1894032
1.4115294
1.2535731
1.0144478
1.0014066
1.0000791
1.0000001
1
1
1
1
1
1
1
1
1
1
1
1
1
1
1
1
1
1
1
1
1
1
1
1
1
1
1
1
1
1
1
1
1.0000002
1
1.0000013
1.0000063
1.0000299
1
1
1
1
1.0000005
1.00853
1.0008701
1.0068096
1.0006081
1.0000001
1
1.0000023
1.0000059
1.0693777
1.0031813
1.012313
1.0011007
1
1
1.0000077
1.0051061
1.1748083
1.025278
1.0132763
1.0017365
1.0000221
1
1
1
1
1
1
1
1
1
1
1
1
1
1
1
1
1
1
1
1
1
1
1
1
1
1
1
1
1
1
1
1
1
1
1
1
1
1.0000944
1.0000031
1
1
1
1.0000048
1.0000019
1.0000101
1.007013
1.0003085
1
1
1.0000084
1.0000048
1.0000052
1.0002651
1.0129432
1.000494
1
1
1.0000172
1.0000087
1.0024417
1.0006
1.0132804
1.0015751
1.0000011
1
1
1
1
1
1
1
1
1
1
1
1
1
1
1
1
1
1
1
1
1
1
1
1
1
1
1
1
1
1.0000001
1
1
1
1
1
1
1.0000003
1.0000395
1.0000012
1
1
1
1.000001
1.0002005
1.0000216
1.0031803
1.0000401
1
1
1.0000434
1.000001
1.0000011
1.0005052
1.0109859
1.0001153
1.0000001
1
1.0000695
1.0000828
1.0000711
1.0012721
1.0132341
1.0013739
1
1
1
1
1
1
1
1
1
1
1
1
1
1
1
1
1
1
1
1
1
1
1
1
1
1
1
1
1
1
1
1
1
1
1
1
1
1.0000004
1.0000047
1.0000001
1
1
1.0000046
1.0000143
1.0010971
1.0000054
1.0002949
1.0000013
1
1
1.0000807
1.0020092
1.0024349
1.0004644
1.0055491
1.000036
1.0000004
1
1.0001152
1.0003345
1.0001009
1.0020718
1.0128029
1.0013083
1
1
1
1
1
1
1
1
1
1
1
1
1
1
1
1
1
1
1
1
1
1
1
1
1
1
1
1
1
1
1
1
1
1
1
1
1.0000536
1
1.0000001
1
1
1
1.000007
1.0002527
1.002645
1
1.0000022
1.0000002
1
1
1.0001015
1.0030434
1.0040035
1.0001681
1.0014104
1.0000095
1.0000004
1
1.0001541
1.0009083
1.0000375
1.0018315
1.010752
1.0010966
1.0000003
1
1
1
1
1
1
1
1
1
1
1
1
1
1
1
1
1
1
1
1
1
1
1
1
1
1
1
1
1
1
1
1
1
1
1.0000014
1.0000818
1
1
1
1
1
1.0000061
1.0003516
1.0030721
1.0000005
1
1.0000001
1
1
1.0000995
1.0024126
1.0040044
1.0000316
1.0000786
1.0000019
1.0000004
1
1.0001757
1.0026219
1.0002937
1.0009256
1.0042269
1.0006011
1.0000013
1
1
1
1
1
1
1
1
1
1
1
1
1
1
1
1
1
1
1
1
1
1
1
1
1
1
1
1
1
1
1
1
1
1
1.000001
1.0000462
1
1
1
1
1
1.0000027
1.0002373
1.0027604
1.0000134
1
1.0000001
1
1
1.0000609
1.0016795
1.0040044
1.0000404
1.0000003
1.0000009
1.0000002
1
1.0001749
1.0029721
1.0018757
1.0003721
1.0002168
1.0001253
1.0000014
1
1
1
1
1
1
1
1
1
1
1
1
1
1
1
1
1
1
1
1
1
1
1
1
1
1
1
1
1
1
1
1
1
1
1.0000001
1.0000058
1.0000001
1
1
1
1
1.0000005
1.0000866
1.001531
1.0000199
1
1
1
1
1.0000156
1.0007897
1.0039971
1.0000895
1
1.0000006
1.0000001
1
1.0001016
1.0028665
1.0041783
1.0003385
1.0000229
1.0000032
1.0000007
1
1
1
1
1
1
1
1
1
1
1
1
1
1
1
1
1
1
1
1
1
1
1
1
1
1
1
1
1
1
1
1
1
1
1
1.0000004
1
1
1
1
1
1
1.0000082
1.0003194
1.0000107
1
1
1
1
1.0000009
1.0002318
1.003316
1.0001029
1
1.0000003
1
1
1.000036
1.0016785
1.0042451
1.0002233
1.0000788
1.0000006
1.0000002
1
1
1
1
1
1
1
1
1
1
1
1
1
1
1
1
1
1
1
1
1
1
1
1
1
1
1
1
1
1
1
1
1
1
1
1
1
1
1
1
1
1
1
1.0000108
1.0000015
1
1
1
1
1
1.0000344
1.0013566
1.0000965
1
1.0000001
1
1
1.0000156
1.0010014
1.0042449
1.0003218
1.0002851
1.0000008
1
1
1
1
1
1
1
1
1
1
1
1
1
1
1
1
1
1
1
1
1
1
1
1
1
1
1
1
1
1
1
1
1
1
1
1
1
1
1
1
1
1
1
1
1
1
1
1
1
1
1
1.0000006
1.000193
1.0000857
1
1
1
1
1.0000037
1.0006777
1.004113
1.0009147
1.0006043
1.0000003
1
1
1
1
1
1
1
1
1
1
1
1
1
1
1
1
1
1
1
1
1
1
1
1
1
1
1
1
1
1
1
1
1
1
1
1
1
1
1
1
1
1
1
1
1
1
1
1
1
1
1
1
1.000013
1.0000551
1
1
1
1
1.0000003
1.0003478
1.0028733
1.0015037
1.0007026
1
1
1
1
1
1
1
1
1
1
1
1
1
1
1
1
1
1
1
1
1
1
1
1
1
1
1
1
1
1
1
1
1
1
1
1
1
1
1
1
1
1
1
1
1
1
1
1
1
1
1
1
1
1.0000004
1.0000162
1
1
1
1
1
1.0000632
1.0012318
1.0014252
1.0006498
1
1
1
1
1
1
1
1
1
1
1
1
1
1
1
1
1
1
1
1
1
1
1
1
1
1
1
1
1
1
1
1
1
1
1
1
1
1
1
1
1
1
1
1
1
1
1
1
1
1
1
1
1
1
1.0000016
1
1
1
1
1
1.0000006
1.0003062
1.0009388
1.0005733
1
1
1
1
1
1
1
1
1
1
1
1
1
1
1
1
1
1
1
1
1
1
1
1
1
1
1
1
1
1
1
1
1
1
1
1
1
1
1
1
1
1
1
1
1
1
1
1
1
1
1
1
1
1
1.0000005
1
1
1
1
1
1
1.000014
1.0005856
1.0005841
1
1
1
1
1
1
1
1
1
1
1
1
1
1
1
1
1
1
1
1
1
1
1
1
1
1
1
1
1
1
1
1
1
1
1
1
1
1
1
1
1
1
1
1
1
1
1
1
1
1
1
1
1
1
1.0000001
1
1
1
1
1
1
1.0000001
1.0004717
1.0005594
1.0000002
1
1
1
1
1
1
1
1
1
1
1
1
1
1
1
1
1
1
1
1
1
1
1
1
1
1
1
1
1
1
1
1
1
1
1
1
1
1
1
1
1
1
1
1
1
1
1
1
1
1
1
1
1
1
1.0000001
1
1
1
1
1
1
1.0002856
1.0003609
1.0000008
1
1
1
1
1
1
1
1
1
1
1
1
1
1
1
1
1
1
1
1
1
1
1
1
1
1
1
1
1
1
1
1
1
1
1
1
1
1
1
1
1
1
1
1
1
1
1
1
1
1
1
1
1
1
1
1
1
1
1
1
1
1.0000586
1.0000783
1.0000005
1
1
1
1
1
1
1
1
1
1
1
1
1
1
1
1
1
1
1
1
1
1
1
1
1
1
1
1
1
1
1
1
1
1
1
1
1
1
1
1
1
1
1
1
1
1
1
1
1
1
1
1
1
1
1
1
1
1
1
1
1
1.0000018
1.0000025
1.0000001
1
1
1
1
1
1
1
1
1
1
1
1
1
1
1
1
1
1
1
1
1
1
1
1
1
1
1
1
1
1
1
1
1
1
1
1
1
1
1
1
1
1
1
1
1
1
1
1
1
1
1
1
1
1
1
1
1
1
1
1
1
1
1
1
1
1
1
1
1
1
1
1
1
1
1
1
1
1
1
1
1
1
1
1
1
1
1
1
1
1
1
1
1
1
1
1
1
1
1
1
1
1
1
1
1
1
1
1
1
1
1
1
1
1
1
1
1
1
1
1
1
1
1
1
1
1
1
1
1
1
1
1
1
1
1
1
1
1
1
1
1
1
1
1
1
1
1
1
1
1
1
1
1
1
1
1
1
1
1
1
1
1
1
1
1
1
1
1
1
1
1
1
1
1
1
1
1
1
1
1
1
1
1
1
1
1
1
1
1
1
1
1
1
1
1
1
1
1
1
1
1
1
1
1
1
1
1
1
1
1
1
1
1
1
1
1
1
1
1
1
1
1
1
1
1
1
1
1
1
1
1
1
1
1
1
1
1
1
1
1
1
1
1
1
1
1
1
1
1
1
1