/*--------------------------------*- C++ -*----------------------------------*\
  =========                 |
  \\      /  F ield         | OpenFOAM: The Open Source CFD Toolbox
   \\    /   O peration     | Website:  https://openfoam.org
    \\  /    A nd           | Version:  13
     \\/     M anipulation  |
\*---------------------------------------------------------------------------*/
FoamFile
{
    format      ascii;
    class       volVectorField;
    location    "0.06";
    object      U;
}
// * * * * * * * * * * * * * * * * * * * * * * * * * * * * * * * * * * * * * //

dimensions      [0 1 -1 0 0 0 0];

internalField   nonuniform List<vector> 
51200
(
(0.053449838 0.012928482 0.011839014)
(0.058521414 0.006994436 0.012052978)
(0.057192997 0.0031419909 0.012139058)
(0.056475449 0.00083410594 0.01216936)
(0.056475477 -0.00083295399 0.012169357)
(0.057193073 -0.0031409894 0.012139054)
(0.058521531 -0.0069937282 0.012052972)
(0.05344998 -0.01292832 0.011839008)
(0.12303097 0.031964764 0.033895844)
(0.1299966 0.014338754 0.033169789)
(0.12700355 0.0065045181 0.033161508)
(0.12560219 0.0017577404 0.033189643)
(0.12560224 -0.0017551234 0.033189634)
(0.1270037 -0.0065022392 0.033161491)
(0.12999684 -0.014337089 0.033169768)
(0.12303129 -0.031964264 0.033895824)
(0.16699571 0.041752491 0.046583814)
(0.17234443 0.018129642 0.044355968)
(0.16846755 0.0082890877 0.044152241)
(0.16682272 0.0022590752 0.04423559)
(0.16682279 -0.0022555335 0.044235573)
(0.16846773 -0.0082859763 0.044152201)
(0.1723447 -0.018127277 0.044355908)
(0.16699611 -0.04175161 0.046583753)
(0.19414386 0.045564865 0.052559168)
(0.19676036 0.019870304 0.048861194)
(0.19254174 0.0091201578 0.048453061)
(0.19089134 0.0025043783 0.048600086)
(0.1908914 -0.0025002687 0.048600061)
(0.19254191 -0.0091165108 0.048452998)
(0.19676063 -0.019867428 0.048861097)
(0.19414429 -0.045563586 0.052559045)
(0.21013545 0.04602662 0.054411477)
(0.21004162 0.020422616 0.049548043)
(0.20583415 0.0093735227 0.048989533)
(0.20429521 0.0025940968 0.049183293)
(0.20429527 -0.0025896488 0.049183261)
(0.20583431 -0.0093695336 0.048989451)
(0.21004185 -0.020419362 0.049547916)
(0.21013585 -0.046024946 0.054411286)
(0.21872275 0.044591162 0.053610517)
(0.21642088 0.020282684 0.047992745)
(0.21243956 0.0092808184 0.047358954)
(0.21106008 0.0025901315 0.047568906)
(0.21106013 -0.0025854866 0.04756887)
(0.2124397 -0.0092766072 0.047358859)
(0.21642108 -0.020279139 0.047992599)
(0.21872312 -0.044589109 0.053610261)
(0.22246075 0.042068795 0.051062812)
(0.21858127 0.019744901 0.045159419)
(0.21495049 0.0089824755 0.044507052)
(0.21374298 0.0025299337 0.04469581)
(0.21374303 -0.0025251764 0.044695771)
(0.21495061 -0.0089781127 0.044506947)
(0.21858144 -0.019741122 0.045159265)
(0.22246108 -0.042066381 0.051062503)
(0.22305051 0.039046552 0.047566471)
(0.21819762 0.018923584 0.041611019)
(0.21498746 0.0085688326 0.041039467)
(0.2139489 0.0024359259 0.041175588)
(0.21394895 -0.0024311069 0.041175547)
(0.21498756 -0.0085643556 0.041039357)
(0.21819776 -0.018919605 0.041610874)
(0.2230508 -0.039043802 0.047566136)
(0.036053678 0.0033856146 0.0012444376)
(0.04164711 0.0037632711 0.0013503129)
(0.039906744 0.0022054375 0.0012820148)
(0.038605316 0.00070824337 0.0012620162)
(0.038605468 -0.00070598907 0.0012620149)
(0.039907191 -0.0022034986 0.0012820117)
(0.041647802 -0.0037619328 0.0013503115)
(0.036054372 -0.0033853724 0.0012444436)
(0.095912994 0.011319618 0.0075016049)
(0.10659407 0.010563705 0.007795322)
(0.10210549 0.0059545213 0.0074915989)
(0.099106624 0.0018788007 0.0074128121)
(0.099106972 -0.0018731418 0.0074128046)
(0.10210651 -0.0059496236 0.0074915736)
(0.1065957 -0.010560199 0.0077953129)
(0.095914773 -0.011318704 0.0075016089)
(0.14518507 0.019472421 0.01524199)
(0.15662753 0.016182516 0.015368621)
(0.15006841 0.0089153409 0.014748666)
(0.14606818 0.0027866132 0.014612802)
(0.14606864 -0.0027785132 0.014612787)
(0.15006973 -0.0089082576 0.014748607)
(0.15662971 -0.016177258 0.015368585)
(0.1451876 -0.019470677 0.015241956)
(0.18433136 0.026520242 0.022817614)
(0.19372674 0.02042381 0.022466908)
(0.18572676 0.011082961 0.021530123)
(0.18124007 0.0034461824 0.021354313)
(0.18124057 -0.0034364034 0.02135429)
(0.18572819 -0.011074315 0.021530021)
(0.19372916 -0.020417164 0.022466833)
(0.18433435 -0.026517585 0.022817507)
(0.21396844 0.031878145 0.02923967)
(0.21981934 0.023339748 0.028223078)
(0.21094643 0.012536294 0.027020777)
(0.20633321 0.0038898186 0.026822123)
(0.2063337 -0.0038789222 0.026822095)
(0.21094785 -0.012526552 0.027020635)
(0.21982178 -0.023332006 0.02822296)
(0.21397163 -0.031874544 0.029239465)
(0.23505202 0.035497645 0.034124584)
(0.23688318 0.025097254 0.032384585)
(0.22762183 0.013389771 0.031000614)
(0.22311673 0.0041558449 0.030791383)
(0.2231172 -0.0041442238 0.030791353)
(0.22762318 -0.013379265 0.03100044)
(0.23688551 -0.025088641 0.032384429)
(0.23505524 -0.035493105 0.034124272)
(0.24874716 0.037591529 0.037454807)
(0.24679918 0.025879016 0.035024014)
(0.23753781 0.013759981 0.033557248)
(0.23328315 0.0042806292 0.033345316)
(0.23328359 -0.0042685507 0.033345282)
(0.23753906 -0.013748944 0.033557055)
(0.24680132 -0.025869709 0.035023833)
(0.24875028 -0.037586081 0.037454393)
(0.25620264 0.038419784 0.039370413)
(0.25119875 0.025827763 0.036293251)
(0.24222234 0.013749521 0.034874139)
(0.2383001 0.0042943795 0.03466539)
(0.23830051 -0.0042820248 0.034665346)
(0.24222348 -0.013738114 0.034873946)
(0.25120069 -0.0258179 0.036293063)
(0.25620559 -0.038413504 0.03936994)
(0.016301204 0.0014891187 6.553767e-07)
(0.023396173 0.0028508648 8.9321651e-05)
(0.024100367 0.0019344124 9.0409443e-05)
(0.023448094 0.00064698234 8.5603868e-05)
(0.023448458 -0.00064389968 8.560109e-05)
(0.024101445 -0.0019317824 9.0406185e-05)
(0.023397797 -0.0028491163 8.9320284e-05)
(0.016302703 -0.0014888489 6.5930464e-07)
(0.052371385 0.0051042786 0.0019228902)
(0.069107819 0.0080939076 0.0024011904)
(0.069962243 0.0052863782 0.0022973317)
(0.06810503 0.0017589578 0.0022095574)
(0.068105892 -0.0017510581 0.0022095432)
(0.069964812 -0.0052795881 0.0022973062)
(0.069111847 -0.0080892068 0.0024011958)
(0.052375426 -0.0051031566 0.0019229023)
(0.089797374 0.0096505252 0.0053882457)
(0.11187182 0.012874072 0.006221923)
(0.11195954 0.0081371997 0.0059302884)
(0.10906305 0.0026889709 0.0057171296)
(0.10906421 -0.0026774778 0.0057171029)
(0.11196301 -0.0081272126 0.0059302313)
(0.11187745 -0.012866897 0.0062219319)
(0.089803393 -0.0096483044 0.0053882497)
(0.12638 0.014751983 0.010050385)
(0.15008053 0.017042603 0.01106522)
(0.14887109 0.010468232 0.010514032)
(0.14516011 0.0034373366 0.01015154)
(0.14516141 -0.0034232691 0.010151501)
(0.148875 -0.010455866 0.010513935)
(0.15008707 -0.017033399 0.011065226)
(0.1263874 -0.014748526 0.010050357)
(0.16013365 0.01986233 0.015255251)
(0.1825996 0.020453806 0.016195746)
(0.17990405 0.012267328 0.01533931)
(0.17562906 0.0040080266 0.01482704)
(0.17563039 -0.0039921754 0.014826991)
(0.17990806 -0.012253229 0.015339171)
(0.1826065 -0.02044295 0.016195738)
(0.1601419 -0.019857571 0.015255163)
(0.18953448 0.024555704 0.020469996)
(0.20889545 0.023016124 0.021077944)
(0.2047737 0.013542329 0.019893725)
(0.20017498 0.0044103487 0.01924597)
(0.20017627 -0.0043932982 0.019245915)
(0.20477761 -0.013526986 0.019893544)
(0.20890233 -0.023003921 0.021077913)
(0.18954311 -0.024549622 0.020469825)
(0.21359736 0.028565456 0.025330344)
(0.22898878 0.024684026 0.025361008)
(0.22363551 0.014323227 0.023849777)
(0.21892005 0.0046587707 0.02309274)
(0.21892127 -0.0046409413 0.023092681)
(0.22363919 -0.014307002 0.02384956)
(0.22899536 -0.024670727 0.025360951)
(0.21360602 -0.02855807 0.025330073)
(0.23180459 0.031585416 0.02933974)
(0.24332921 0.025464035 0.028690556)
(0.23694307 0.014664276 0.026912621)
(0.23228014 0.0047723713 0.026099712)
(0.23228127 -0.0047540627 0.026099653)
(0.23694647 -0.014647436 0.026912383)
(0.24333532 -0.025449845 0.028690479)
(0.23181304 -0.031576814 0.029339402)
(0.014210981 0.00058918435 7.7912101e-05)
(0.020929579 0.0015848959 0.0001075631)
(0.022449475 0.0012406915 0.00010028371)
(0.022234143 0.00043855174 8.9848266e-05)
(0.022234771 -0.00043450571 8.9845421e-05)
(0.022451289 -0.0012372951 0.00010028227)
(0.020932223 -0.0015827398 0.00010756582)
(0.014213315 -0.00058890212 7.7919112e-05)
(0.043870378 0.002255013 0.00077584846)
(0.060495452 0.0048508945 0.0010569618)
(0.063920234 0.0036427288 0.001012683)
(0.063223152 0.0012781473 0.00092264999)
(0.063224654 -0.0012677477 0.00092263573)
(0.063924626 -0.0036339194 0.0010126706)
(0.060502102 -0.0048450348 0.0010569992)
(0.043876722 -0.0022537341 0.00077587922)
(0.074100338 0.0045750498 0.002244475)
(0.097430008 0.0081518058 0.0028918561)
(0.10172695 0.0059011785 0.0027611948)
(0.10049163 0.0020538797 0.0025398321)
(0.10049368 -0.0020387128 0.0025398057)
(0.101733 -0.0058881782 0.0027611668)
(0.09743947 -0.0081428024 0.0028919404)
(0.074109909 -0.0045724325 0.0022445233)
(0.1042803 0.0074682286 0.0044758883)
(0.13147287 0.01135743 0.005493065)
(0.13576944 0.0079440626 0.0052172566)
(0.13396725 0.0027428247 0.0048303437)
(0.13396958 -0.0027242252 0.004830306)
(0.13577641 -0.0079279224 0.005217207)
(0.13148412 -0.011345828 0.0054932014)
(0.10429229 -0.0074640839 0.0044759436)
(0.13362078 0.010763387 0.0073476581)
(0.16222886 0.014309552 0.0086300828)
(0.1658528 0.0097020179 0.0081472094)
(0.16350045 0.0033257749 0.0075814565)
(0.16350288 -0.0033047907 0.0075814101)
(0.16586013 -0.0096835798 0.0081471338)
(0.16224106 -0.014295825 0.008630266)
(0.13363443 -0.010757627 0.007347704)
(0.16120463 0.014241606 0.010669997)
(0.18928432 0.016852951 0.012034156)
(0.19177382 0.01112286 0.011288468)
(0.18893222 0.0037901957 0.01054926)
(0.18893462 -0.0037676096 0.010549208)
(0.19178113 -0.011102766 0.011288365)
(0.18929682 -0.016837486 0.012034376)
(0.16121929 -0.014234207 0.010670012)
(0.18609303 0.017660369 0.014212446)
(0.21234735 0.018854634 0.015424832)
(0.21341347 0.012179927 0.014378877)
(0.21017636 0.0041316263 0.013489897)
(0.21017866 -0.004108006 0.013489844)
(0.21342049 -0.012158656 0.014378748)
(0.21235965 -0.01883775 0.015425078)
(0.18610813 -0.01765135 0.014212413)
(0.20744817 0.020696253 0.017588275)
(0.23137174 0.020243166 0.018538996)
(0.23079818 0.012876228 0.017179739)
(0.22728279 0.0043540127 0.016194789)
(0.22728494 -0.0043297648 0.016194739)
(0.23080474 -0.012854135 0.017179591)
(0.23138346 -0.020225116 0.018539258)
(0.20746328 -0.020685723 0.017588228)
(0.011499081 0.00032861533 1.5146722e-05)
(0.018056335 0.0009747103 4.3906185e-05)
(0.020343959 0.00080205143 4.3815048e-05)
(0.02064019 0.00028816349 3.5224236e-05)
(0.020641205 -0.00028270199 3.5221755e-05)
(0.02034683 -0.00079754806 4.3814e-05)
(0.018060407 -0.00097198742 4.3911236e-05)
(0.011502573 -0.00032828095 1.5155222e-05)
(0.036261347 0.0012652885 0.00042600633)
(0.052988927 0.0030260572 0.00064375289)
(0.058577809 0.0024294357 0.00061848622)
(0.059197396 0.00087611462 0.00053175282)
(0.059199846 -0.00086210351 0.00053173581)
(0.058584826 -0.0024177515 0.0006184721)
(0.052999244 -0.0030185977 0.00064379365)
(0.036270901 -0.001263719 0.00042602599)
(0.062112393 0.0025938326 0.0012804167)
(0.086271375 0.005173552 0.0017687351)
(0.093991067 0.0040447964 0.0016859337)
(0.094679191 0.0014550811 0.001473348)
(0.094682554 -0.0014346903 0.0014733122)
(0.094000817 -0.0040275677 0.0016858986)
(0.086286149 -0.0051620402 0.0017688212)
(0.06212687 -0.00259057 0.0012804255)
(0.088482924 0.0043028929 0.0025880295)
(0.11763347 0.0073672311 0.003370722)
(0.12645413 0.0056009685 0.0031899409)
(0.1269933 0.0020052867 0.0028192012)
(0.12699716 -0.0019803455 0.0028191448)
(0.12646547 -0.005579614 0.0031898759)
(0.11765116 -0.0073523625 0.0033708595)
(0.088501133 -0.0042976862 0.0025880131)
(0.11477148 0.0063344682 0.0043039819)
(0.14680369 0.0095230725 0.0053429012)
(0.15584607 0.0070415298 0.0050190102)
(0.15606832 0.002506754 0.0044764206)
(0.15607237 -0.0024786997 0.0044763455)
(0.15585811 -0.0070171902 0.0050189101)
(0.14682303 -0.009505469 0.0053430891)
(0.11479231 -0.0063272087 0.0043039292)
(0.14034347 0.0086014831 0.0063620704)
(0.17353058 0.011536495 0.0075606251)
(0.18206344 0.0083121646 0.0070476581)
(0.18185513 0.0029420455 0.0063357896)
(0.18185916 -0.0029119506 0.0063357004)
(0.18207556 -0.0082857108 0.0070475222)
(0.17355058 -0.011516676 0.0075608593)
(0.14036596 -0.0085921495 0.0063619704)
(0.16454307 0.01097704 0.0086596627)
(0.19762614 0.013297328 0.0098723503)
(0.20503764 0.0093709692 0.0091331198)
(0.2043392 0.0032988393 0.0082713318)
(0.20434308 -0.0032674782 0.0082712341)
(0.20504939 -0.0093430463 0.0091329511)
(0.19764605 -0.01327572 0.009872628)
(0.16456643 -0.010965675 0.0086595078)
(0.18672805 0.013248216 0.010971233)
(0.21903413 0.01473007 0.012140759)
(0.22475593 0.010196128 0.011145819)
(0.22356312 0.0035717063 0.010180464)
(0.22356676 -0.0035396282 0.010180365)
(0.22476702 -0.010167208 0.011145625)
(0.21905334 -0.014707007 0.012141074)
(0.18675164 -0.013234968 0.010971087)
(0.010246266 0.00018671839 1.4276485e-05)
(0.016512675 0.00057864978 3.2343688e-05)
(0.019194914 0.00048670563 3.1529513e-05)
(0.019864072 0.00017728511 2.3882085e-05)
(0.019865661 -0.00016972339 2.3880175e-05)
(0.019199308 -0.00048060461 3.1524495e-05)
(0.016518747 -0.00057519863 3.2345249e-05)
(0.010251301 -0.00018628986 1.4277974e-05)
(0.032349996 0.00073284192 0.00025589097)
(0.048614393 0.0018411198 0.00041332829)
(0.05543457 0.0015357892 0.00039998254)
(0.057077112 0.00056717428 0.00032753605)
(0.057080973 -0.00054780521 0.00032751179)
(0.055445377 -0.0015199355 0.00039994109)
(0.048629853 -0.0018315618 0.00041332132)
(0.032363834 -0.00073085202 0.0002558431)
(0.055540926 0.0015213332 0.00076962266)
(0.079448194 0.0032097188 0.0011380361)
(0.089251883 0.0026339076 0.0010919762)
(0.091511206 0.0009753357 0.00091429186)
(0.091516541 -0.00094720475 0.0009142317)
(0.089266989 -0.0026105307 0.0010918761)
(0.079470429 -0.0031948618 0.0011379997)
(0.055561963 -0.0015171858 0.00076945611)
(0.079401781 0.0025555056 0.0015673796)
(0.10885269 0.0046621207 0.0021766154)
(0.12058976 0.0037488452 0.0020709183)
(0.12313945 0.0013860665 0.0017606434)
(0.12314561 -0.0013517496 0.0017605378)
(0.12060743 -0.0037199007 0.0020707405)
(0.10887942 -0.0046428299 0.0021765381)
(0.079428324 -0.0025488698 0.0015670544)
(0.1034908 0.003814594 0.0026310207)
(0.13666036 0.0061540108 0.0034666825)
(0.14938752 0.004840606 0.0032697989)
(0.15194232 0.0017829985 0.0028148341)
(0.15194884 -0.0017445243 0.0028146812)
(0.14940641 -0.0048076802 0.003269533)
(0.13668971 -0.0061310893 0.0034665598)
(0.10352125 -0.0038053246 0.0026305192)
(0.1273434 0.0052615136 0.0039298002)
(0.16271927 0.0076247819 0.0049375041)
(0.1755928 0.0058674833 0.0046161977)
(0.177916 0.0021505037 0.0040175818)
(0.17792251 -0.0021093866 0.0040173857)
(0.17561192 -0.0058317937 0.0046158434)
(0.16274977 -0.0075989223 0.00493734)
(0.12737637 -0.0052495805 0.0039291177)
(0.15047824 0.0068341445 0.005412688)
(0.18692337 0.0090042824 0.0065048118)
(0.19917122 0.0067922108 0.0060296474)
(0.20108014 0.0024754993 0.0053016565)
(0.20108643 -0.00243283 0.0053014254)
(0.19918987 -0.0067546608 0.0060292132)
(0.18695388 -0.0089760668 0.0065046219)
(0.1505126 -0.0068196035 0.005411835)
(0.17240976 0.0084127659 0.0069583323)
(0.20925528 0.010237992 0.008102559)
(0.22011105 0.0075874102 0.0074416545)
(0.22148591 0.0027490945 0.0066194224)
(0.22149183 -0.0027056418 0.0066191677)
(0.22012875 -0.007548657 0.007441156)
(0.20928489 -0.010207887 0.0081023632)
(0.17244457 -0.0083958079 0.006957423)
(0.009411737 0.0001186757 7.3722242e-06)
(0.015457812 0.00036016044 2.0818272e-05)
(0.018383465 0.00029932279 2.1148665e-05)
(0.019322909 0.00010989497 1.5441955e-05)
(0.019325409 -9.9155908e-05 1.5441688e-05)
(0.018390273 -0.00029087079 2.1132759e-05)
(0.015466984 -0.0003557976 2.0808967e-05)
(0.0094190559 -0.00011805742 7.3509897e-06)
(0.029811405 0.00045983843 0.0001595567)
(0.045667658 0.001155637 0.00027594774)
(0.053252879 0.00097285893 0.00027194283)
(0.055649004 0.0003665226 0.00021682526)
(0.055655117 -0.00033904761 0.00021677971)
(0.053269702 -0.00095084728 0.00027180404)
(0.045691123 -0.0011433897 0.00027576403)
(0.029831622 -0.000457204 0.00015930274)
(0.051323241 0.00095152608 0.00048594525)
(0.074866789 0.0020339172 0.0007610068)
(0.085982 0.00170612 0.0007413579)
(0.089420963 0.00064814194 0.00060567543)
(0.089429457 -0.00060830844 0.00060554538)
(0.086005604 -0.0016736431 0.0007410214)
(0.07490064 -0.0020146887 0.00076051238)
(0.051354077 -0.00094614772 0.00048525559)
(0.073592209 0.0016011408 0.00099655417)
(0.10293489 0.002988753 0.001457991)
(0.11654143 0.0024806363 0.0014058637)
(0.12063686 0.00094416581 0.0011683658)
(0.12064673 -0.00089569124 0.0011681217)
(0.11656913 -0.0024404422 0.0014052767)
(0.10297567 -0.0029635822 0.0014571022)
(0.073631203 -0.001592601 0.00099529391)
(0.096250546 0.0024017738 0.001682387)
(0.1297528 0.003999324 0.0023277704)
(0.14489852 0.0032717806 0.0022225078)
(0.14929907 0.0012432082 0.0018736189)
(0.14930954 -0.0011890303 0.0018732491)
(0.14492822 -0.0032261219 0.0022216485)
(0.12979766 -0.00396922 0.0023264618)
(0.096295352 -0.0023898811 0.0016804997)
(0.11891725 0.0033375997 0.0025276427)
(0.15521741 0.0050332465 0.0033276737)
(0.17102396 0.0040519662 0.0031468495)
(0.17541981 0.0015336667 0.0026869826)
(0.17543032 -0.0014759841 0.0026864902)
(0.17105412 -0.0040025882 0.0031457242)
(0.15526407 -0.004999113 0.0033259697)
(0.11896581 -0.0033223009 0.0025251298)
(0.14119903 0.0043784375 0.0035055762)
(0.17926323 0.0060498412 0.0044090845)
(0.19489622 0.0047940339 0.0041314931)
(0.19902609 0.0018048175 0.0035708879)
(0.19903626 -0.0017452145 0.003570287)
(0.1949257 -0.0047422408 0.0041301318)
(0.17930995 -0.0060124658 0.0044070548)
(0.14124962 -0.0043597833 0.0035024885)
(0.16269298 0.0054573878 0.004548886)
(0.20189384 0.0070152756 0.0055395723)
(0.21650035 0.0054745418 0.0051376552)
(0.22016339 0.0020480066 0.004501445)
(0.22017298 -0.0019875973 0.004500761)
(0.21652839 -0.005421284 0.0051361066)
(0.20193922 -0.0069753153 0.0055373202)
(0.16274422 -0.0054355969 0.0045454507)
(0.0088914892 7.9358341e-05 4.7612337e-06)
(0.014761089 0.00023380341 1.414943e-05)
(0.017817374 0.00019178329 1.4894537e-05)
(0.018935952 7.22539e-05 1.0840738e-05)
(0.018939979 -5.6631909e-05 1.0840102e-05)
(0.017828295 -0.00017983945 1.4847227e-05)
(0.01477548 -0.0002284132 1.4099088e-05)
(0.0089025702 -7.8363892e-05 4.6737687e-06)
(0.028203789 0.00030268899 0.00010328257)
(0.043696751 0.00075247863 0.00018864067)
(0.051717013 0.00063526235 0.00019158274)
(0.05462591 0.00024673533 0.00015276512)
(0.054635828 -0.00020678613 0.00015265974)
(0.051744113 -0.000604055 0.0001911729)
(0.043733732 -0.00073704347 0.0001879506)
(0.028234547 -0.00029908704 0.00010246889)
(0.048623435 0.00062250396 0.00031710395)
(0.071772113 0.0013308532 0.0005224987)
(0.083661871 0.0011305097 0.00052314689)
(0.087921327 0.00044339987 0.00042724484)
(0.087935178 -0.00038555716 0.00042693688)
(0.083700004 -0.0010844056 0.00052215775)
(0.071825604 -0.0013062573 0.00052072963)
(0.048670483 -0.00061550519 0.00031502115)
(0.069837025 0.0010463696 0.00065471019)
(0.098895169 0.0019692025 0.0010049552)
(0.11364164 0.001667667 0.00099394579)
(0.11883676 0.00065567809 0.00082549402)
(0.11885291 -0.00058543765 0.00082491068)
(0.11368649 -0.001610601 0.00099223968)
(0.098959707 -0.0019366036 0.0010018376)
(0.069896619 -0.0010355123 0.0006510026)
(0.091523144 0.0015733709 0.0011124549)
(0.12497685 0.00265843 0.0016111584)
(0.14164147 0.0022325688 0.0015753507)
(0.14738752 0.00087638051 0.0013270559)
(0.14740472 -0.00079810849 0.0013261651)
(0.14168962 -0.0021678079 0.0015728824)
(0.12504784 -0.00261903 0.0016066162)
(0.091591647 -0.0015584374 0.0011069878)
(0.11335065 0.0021975058 0.0016825418)
(0.14994273 0.0033816173 0.0023144495)
(0.16764593 0.0028083055 0.002238573)
(0.17359375 0.0010977966 0.0019102525)
(0.17361106 -0.0010147758 0.0019090564)
(0.16769481 -0.0027384117 0.0022353742)
(0.15001649 -0.0033365515 0.0023085619)
(0.11342482 -0.0021783981 0.0016753257)
(0.13497736 0.0029041647 0.0023506172)
(0.1737506 0.0041155267 0.003085155)
(0.19164097 0.0033769205 0.0029536168)
(0.19748392 0.0013122635 0.0025521061)
(0.19750068 -0.0012268664 0.0025506333)
(0.19168873 -0.0033038283 0.0029497792)
(0.17382427 -0.0040658419 0.0030781317)
(0.13505446 -0.0028808677 0.0023417828)
(0.15604889 0.00365425 0.0030771602)
(0.19641717 0.0048398813 0.0039056858)
(0.21361091 0.0039212303 0.0036954861)
(0.21909752 0.0015129192 0.0032378087)
(0.2191133 -0.0014268153 0.0032361161)
(0.21365627 -0.003846358 0.0036911521)
(0.19648852 -0.0047864985 0.0038978415)
(0.15612672 -0.0036269496 0.0030671832)
(0.0085411473 5.7030526e-05 3.2393774e-06)
(0.014277363 0.00016289835 9.9439698e-06)
(0.0174039 0.00013525993 1.1049337e-05)
(0.018639571 5.4721419e-05 8.3364484e-06)
(0.01864621 -3.1270535e-05 8.329419e-06)
(0.017422213 -0.00011782004 1.0924978e-05)
(0.014301032 -0.0001562512 9.7988912e-06)
(0.0085588672 -5.5272497e-05 3.0265595e-06)
(0.027120316 0.00021205317 7.1036653e-05)
(0.042322492 0.00052068735 0.0001343307)
(0.050589502 0.00044611238 0.00014164813)
(0.05383999 0.00018386463 0.00011582963)
(0.053856482 -0.00012389771 0.00011556173)
(0.05063514 -0.0004004141 0.00014053286)
(0.042383582 -0.00050116767 0.00013228249)
(0.027169781 -0.00020694756 6.8792626e-05)
(0.046800303 0.00043108797 0.00021873446)
(0.069603468 0.00091880678 0.00037334371)
(0.081948089 0.00079393427 0.00038696781)
(0.086763253 0.00032804094 0.00032298525)
(0.086786417 -0.00024131538 0.00032222392)
(0.082012464 -0.00072636659 0.00038427916)
(0.06969202 -0.00088713307 0.00036823039)
(0.046876211 -0.00042194758 0.00021301439)
(0.067292759 0.00072057946 0.0004528808)
(0.096045327 0.0013600401 0.00072032595)
(0.11148145 0.0011743234 0.00073608248)
(0.1174345 0.00048371264 0.00062329648)
(0.11746164 -0.00037862825 0.0006218765)
(0.11155725 -0.0010907273 0.00073147603)
(0.096152228 -0.0013174445 0.00071145404)
(0.067389046 -0.00070696801 0.00044273571)
(0.088304303 0.0010817993 0.00077199795)
(0.12157756 0.0018410765 0.0011587957)
(0.13918659 0.0015799406 0.0011688729)
(0.14587777 0.00064693291 0.0010019942)
(0.14590674 -0.00053021055 0.00099984665)
(0.13926796 -0.0014852279 0.001162269)
(0.12169504 -0.001788981 0.0011460077)
(0.088414943 -0.0010634696 0.00075706095)
(0.10953432 0.001513125 0.0011721329)
(0.14614403 0.0023532962 0.0016713057)
(0.16505809 0.0020012242 0.0016655167)
(0.17211892 0.00081319051 0.001444024)
(0.17214811 -0.00068991636 0.0014411594)
(0.16514057 -0.0018992957 0.0016570371)
(0.14626577 -0.0022931409 0.0016548566)
(0.10965384 -0.001489896 0.0011524969)
(0.13067254 0.002007604 0.00164532)
(0.16971829 0.0028834273 0.0022387188)
(0.18908869 0.002427187 0.0022056116)
(0.19618833 0.00097764688 0.0019337615)
(0.1962166 -0.00085151493 0.0019302514)
(0.18916907 -0.0023210212 0.0021955256)
(0.16983937 -0.0028166164 0.00221919)
(0.13079628 -0.0019793655 0.0016214506)
(0.15139608 0.0025415062 0.0021674597)
(0.19232781 0.0034194605 0.0028510804)
(0.21126552 0.002846372 0.0027716835)
(0.21812312 0.0011355712 0.0024603687)
(0.21814969 -0.001009185 0.0024563459)
(0.21134155 -0.0027381677 0.0027603895)
(0.19244445 -0.0033472997 0.0028293256)
(0.15152028 -0.0025083846 0.0021405435)
(0.0082862911 4.433593e-05 2.8273729e-06)
(0.013921074 0.00012247499 7.4663865e-06)
(0.017085501 0.00010837245 8.6330432e-06)
(0.018398861 5.0187939e-05 6.8178396e-06)
(0.018410243 -1.3754755e-05 6.7669694e-06)
(0.017117936 -8.1608241e-05 8.3257232e-06)
(0.013964342 -0.00011358752 7.0562699e-06)
(0.0083196064 -4.0938526e-05 2.0535438e-06)
(0.026335822 0.00015820227 5.4688754e-05)
(0.041310022 0.00038643974 0.00010135657)
(0.049719294 0.00034731568 0.00011000224)
(0.053199723 0.00015940313 9.3283357e-05)
(0.053228266 -6.6175164e-05 9.2568578e-05)
(0.049800655 -0.0002770978 0.00010693336)
(0.041419247 -0.00035931691 9.5196827e-05)
(0.026426537 -0.00014988063 4.8252229e-05)
(0.045484035 0.00031600208 0.00016585282)
(0.06800402 0.00067663292 0.00028167062)
(0.080620996 0.00060786554 0.00030026453)
(0.085814762 0.0002749328 0.00025888491)
(0.085855039 -0.00014025513 0.0002569833)
(0.080735678 -0.0005043466 0.00029298332)
(0.068161173 -0.00063271918 0.00026739545)
(0.04562242 -0.00030318014 0.00015025327)
(0.065458981 0.00052285565 0.00034041527)
(0.093938714 0.00099615703 0.00054355887)
(0.10980006 0.00088880145 0.00057112455)
(0.11627597 0.00039541581 0.00049809835)
(0.11632326 -0.00023262474 0.00049468284)
(0.1099348 -0.00076118885 0.00055892649)
(0.094127432 -0.00093731841 0.00051992091)
(0.065633502 -0.00050559539 0.00031338198)
(0.085985178 0.00078054713 0.00057693587)
(0.11905524 0.0013442056 0.00087497117)
(0.13726137 0.0011870322 0.00090737966)
(0.14461343 0.00051933975 0.00079908591)
(0.14466394 -0.00033919166 0.00079405025)
(0.13740556 -0.001043073 0.00089025849)
(0.11926152 -0.0012723724 0.00084190683)
(0.086184258 -0.0007588456 0.00053780826)
(0.10678143 0.0010892679 0.00087272357)
(0.1433093 0.0017164044 0.0012634391)
(0.16300679 0.0014978284 0.0012942947)
(0.17085756 0.00064471364 0.0011501947)
(0.17090839 -0.00045540639 0.0011436043)
(0.16315236 -0.0013437057 0.0012727139)
(0.14352174 -0.0016334617 0.0012217595)
(0.10699457 -0.00106293 0.00082205132)
(0.12755809 0.0014457795 0.0012227391)
(0.16668535 0.0021050459 0.0016956068)
(0.18703495 0.0018151276 0.0017168961)
(0.19504117 0.00076907636 0.0015395843)
(0.19509026 -0.00057659255 0.0015316311)
(0.18717603 -0.001655588 0.0016916335)
(0.16689506 -0.0020128667 0.0016468235)
(0.12777639 -0.0014144785 0.0011619472)
(0.14801331 0.0018349763 0.0016112003)
(0.18921936 0.0025030904 0.0021656971)
(0.20933692 0.0021319877 0.0021623435)
(0.21720133 0.0008897034 0.0019584966)
(0.21724728 -0.00069825982 0.0019494812)
(0.20946949 -0.0019705476 0.0021344579)
(0.18941965 -0.0024034699 0.0021119044)
(0.14822965 -0.001798603 0.0015432395)
(0.0080757373 3.9927434e-05 3.1876497e-06)
(0.013636199 0.00010367268 6.3016519e-06)
(0.016826575 0.00010115607 7.1681692e-06)
(0.018195846 5.6139569e-05 5.8685584e-06)
(0.018215387 3.3174827e-06 5.6308824e-06)
(0.01688893 -5.1716247e-05 6.3546398e-06)
(0.01373399 -8.8593696e-05 4.4803333e-06)
(0.0081447815 -4.0012503e-05 -1.160808e-07)
(0.025698908 0.00013014102 5.3119667e-05)
(0.040505974 0.00031840148 8.4151577e-05)
(0.049012347 0.00030855031 8.9974136e-05)
(0.052658435 0.00016576207 7.819188e-05)
(0.052708102 -1.293032e-05 7.5828638e-05)
(0.049165476 -0.00017373161 7.9563466e-05)
(0.040715947 -0.00021001032 6.8360867e-05)
(0.025884985 -6.734047e-05 3.4371318e-05)
(0.044429991 0.0002513595 0.00015317204)
(0.06674009 0.00054705808 0.00023122945)
(0.079542732 0.00052228915 0.00024463737)
(0.085009528 0.00027153687 0.00021570634)
(0.085080024 -5.1853021e-05 0.0002097828)
(0.079756244 -0.00033951856 0.00022072438)
(0.067032462 -0.00042899325 0.00019436655)
(0.044709209 -0.00019495944 0.00011484717)
(0.06400797 0.00040720464 0.00030315926)
(0.092280413 0.00079247744 0.00044261692)
(0.10843197 0.00074322887 0.00046418636)
(0.11528568 0.00037378302 0.00041346328)
(0.11536868 -0.00010971063 0.00040365011)
(0.10868069 -0.00052686881 0.00042781027)
(0.092626678 -0.00066502502 0.0003840918)
(0.06435453 -0.00035378713 0.00023624594)
(0.084168444 0.00059872091 0.00049901128)
(0.11707487 0.001055272 0.00070790483)
(0.13569006 0.00097120804 0.00073618247)
(0.1435213 0.00047304985 0.00066141226)
(0.14360995 -0.00018267963 0.00064794478)
(0.13595416 -0.00073330902 0.00068897604)
(0.11744997 -0.0009190442 0.00062844094)
(0.084557734 -0.00054670199 0.00040139328)
(0.10464196 0.00082665353 0.00073718398)
(0.14108628 0.0013336552 0.0010169429)
(0.16132385 0.0012049172 0.0010487767)
(0.16975041 0.00056955853 0.00094985098)
(0.16983942 -0.00026668004 0.00093324537)
(0.1615884 -0.00095505602 0.00099256654)
(0.14146951 -0.0011893966 0.00091867078)
(0.10505249 -0.00077524001 0.00061096064)
(0.12515149 0.0010896157 0.0010134303)
(0.16430597 0.0016233736 0.0013593385)
(0.18533636 0.0014419201 0.0013901455)
(0.19400819 0.00066299929 0.0012690724)
(0.19409378 -0.0003576533 0.0012499877)
(0.18559062 -0.0011874073 0.0013269963)
(0.16468108 -0.0014722395 0.0012458349)
(0.12556568 -0.0010379195 0.00086292552)
(0.14540844 0.001377187 0.001315227)
(0.18677569 0.0019207346 0.0017312746)
(0.20772211 0.0016788349 0.001750432)
(0.21633255 0.00075256554 0.0016117091)
(0.2164122 -0.00045176752 0.0015908938)
(0.20795884 -0.0014250387 0.0016828187)
(0.18713052 -0.0017640813 0.0016074008)
(0.1458128 -0.0013248699 0.0011483796)
(0.0078183962 4.0718019e-05 6.5537202e-06)
(0.013372063 0.00010953672 6.9423843e-06)
(0.016603443 0.00011078057 6.3904358e-06)
(0.018024587 7.2324414e-05 5.0069968e-06)
(0.018055868 3.2117001e-05 4.1788781e-06)
(0.016743973 -9.6139415e-06 4.3489475e-06)
(0.013551048 -6.4166399e-05 8.1988179e-06)
(0.0080172572 -3.6504585e-05 -2.2508633e-06)
(0.024985707 0.00013036587 6.9420267e-05)
(0.039784457 0.00031825062 8.0051772e-05)
(0.048406964 0.00031885765 7.8516775e-05)
(0.052200297 0.0002018977 6.6929107e-05)
(0.052288786 6.5033234e-05 5.8878978e-05)
(0.048685578 -3.6206476e-05 3.3307546e-05)
(0.040172964 -4.9916635e-05 6.4243907e-05)
(0.025486022 2.5069701e-05 2.5725097e-05)
(0.043327936 0.00024281795 0.00018537714)
(0.0656292 0.00052222794 0.0002138139)
(0.078622677 0.00051615853 0.00021174906)
(0.084324316 0.00031504236 0.00018386798)
(0.08444884 6.2500568e-05 0.00016530547)
(0.078993462 -0.00016025276 0.00012694714)
(0.066169405 -0.00024496802 0.00015641543)
(0.044033462 -8.8571732e-05 9.6216098e-05)
(0.062571068 0.00037478346 0.00034385152)
(0.090846174 0.00072563694 0.00040164764)
(0.10726704 0.00070526552 0.00039937956)
(0.11443676 0.00041341177 0.00035168235)
(0.11458138 3.386753e-05 0.00032348116)
(0.10769255 -0.00030383113 0.00028610701)
(0.091482195 -0.00044205705 0.00029614638)
(0.063405361 -0.00022194077 0.00019182582)