/*--------------------------------*- C++ -*----------------------------------*\
  =========                 |
  \\      /  F ield         | OpenFOAM: The Open Source CFD Toolbox
   \\    /   O peration     | Website:  https://openfoam.org
    \\  /    A nd           | Version:  13
     \\/     M anipulation  |
\*---------------------------------------------------------------------------*/
FoamFile
{
    format      ascii;
    class       volScalarField;
    location    "0.03";
    object      alpha.water;
}
// * * * * * * * * * * * * * * * * * * * * * * * * * * * * * * * * * * * * * //

dimensions      [];

internalField   nonuniform List<scalar> 
51200
(
0
0
0
0
0
0
0
0
0
0
0
0
0
0
0
0
0
0
0
0
0
0
0
0
0
0
0
0
0
0
0
0
0
0
0
0
0
0
0
0
0
0
0
0
0
0
0
0
0
0
0
0
0
0
0
0
0
0
0
0
0
0
0
0
0
0
0
0
0
0
0
0
0
0
0
0
0
0
0
0
0
0
0
0
0
0
0
0
0
0
0
0
0
0
0
0
0
0
0
0
0
0
0
0
0
0
0
0
0
0
0
0
0
0
0
0
0
0
0
0
0
0
0
0
0
0
0
0
0
0
0
0
0
0
0
0
0
0
0
0
0
0
0
0
0
0
0
0
0
0
0
0
0
0
0
0
0
0
0
0
0
0
0
0
0
0
0
0
0
0
0
0
0
0
0
0
0
0
0
0
0
0
0
0
0
0
0
0
0
0
0
0
0
0
0
0
0
0
0
0
0
0
0
0
0
0
0
0
0
0
0
0
0
0
0
0
0
0
0
0
0
0
0
0
0
0
0
0
0
0
0
0
0
0
0
0
0
0
0
0
0
0
0
0
0
0
0
0
0
0
0
0
0
0
0
0
0
0
0
0
0
0
0
0
0
0
0
0
0
0
0
0
0
0
0
0
0
0
0
0
0
0
0
0
0
0
0
0
0
0
0
0
0
0
0
0
0
0
0
0
0
0
0
0
0
0
0
0
0
0
0
0
0
0
0
0
0
0
0
0
0
0
0
0
0
0
0
0
0
0
0
0
0
0
0
0
0
0
0
0
0
0
0
0
0
0
0
0
0
0
0
0
0
0
0
0
0
0
0
0
0
0
0
0
0
0
0
0
0
0
0
0
0
0
0
0
0
0
0
0
0
0
0
0
0
0
0
0
0
0
0
0
0
0
0
0
0
0
0
0
0
0
0
0
0
0
0
0
0
0
0
0
0
0
0
0
0
0
0
0
0
0
0
0
0
0
0
0
0
0
0
0
0
0
0
0
0
0
0
0
0
0
0
0
0
0
0
0
0
0
0
0
0
0
0
0
0
0
0
0
0
0
0
0
0
0
0
0
0
0
0
0
0
0
0
0
0
0
0
0
0
0
0
0
0
0
0
0
0
0
0
0
0
0
0
0
0
0
0
0
0
0
0
0
0
0
0
0
0
0
0
0
2.9445664e-26
-1.4842213e-81
1.1345239e-53
-2.1639327e-59
-6.7622897e-61
0
0
1.0937558e-27
0
9.0761916e-53
3.102681e-70
1.3121329e-66
4.8298783e-91
0
-2.3792524e-47
1.6638832e-26
0
1.2743675e-21
1.2238739e-46
1.189744e-47
8.4586605e-67
0
-1.4521656e-51
4.6227841e-64
-2.2158671e-56
8.8828853e-21
3.4014899e-22
-3.8981946e-43
0
-2.7049159e-60
0
2.9043813e-51
-1.3524579e-60
3.181452e-22
3.7825308e-23
1.0356362e-26
-1.0076597e-68
0
0
-7.0907747e-55
1.680869e-58
1.8416895e-25
5.9219449e-26
0
0
1.2350757e-113
-5.2830388e-63
-1.7370628e-111
5.3628629e-58
1.1457444e-36
1.9490132e-43
1.0358144e-46
0
-7.8723413e-71
0
1.5813404e-97
9.5384398e-63
-6.3654536e-51
5.5211587e-47
-4.5380958e-53
2.8825456e-78
1.9219583e-74
1.9617932e-113
1.0318435e-65
2.6063634e-17
6.9235373e-16
1.4199912e-12
6.1821426e-11
1.1977601e-12
3.4118861e-17
2.1308596e-20
1.2354279e-30
6.0725873e-32
1.0853373e-15
4.1616575e-13
5.0066232e-12
7.6828848e-13
0
5.7171306e-32
8.1095035e-31
9.4676991e-14
4.5106392e-17
2.8452734e-16
6.0273426e-32
3.4301687e-15
0
4.4389808e-36
2.1883426e-31
7.470082e-16
8.7354059e-20
5.7466186e-24
2.184957e-27
-1.3080737e-35
7.3283342e-17
5.9622787e-19
2.5983118e-18
7.0077567e-17
2.7126791e-19
5.7499432e-24
7.694235e-27
4.0986244e-17
3.8541981e-17
1.6614714e-16
8.1928869e-16
4.3613728e-19
7.8988744e-21
1.7539407e-20
5.25482e-17
1.4127815e-17
6.1484623e-18
7.9186198e-18
3.4995987e-17
6.3817217e-39
1.0247883e-22
2.4784757e-21
4.9478474e-18
6.7853333e-19
2.7230635e-19
9.4097128e-19
1.2359783e-20
4.735131e-22
1.2764149e-22
2.1783195e-22
1.2432727e-20
3.4117008e-21
5.9896638e-21
8.8220309e-20
8.9186016e-22
2.381956e-17
1.9007402e-14
2.2083213e-11
3.7135767e-10
3.3426044e-12
3.4531151e-17
8.1387219e-07
8.7873268e-09
5.9205975e-11
4.6328746e-13
1.1256871e-11
1.3820937e-10
1.4847844e-12
1.398896e-10
3.2127684e-07
7.6104637e-09
2.7152127e-13
7.3414709e-13
9.6620521e-12
6.3094198e-11
8.0135086e-13
6.495888e-12
3.1503056e-10
4.7578999e-10
6.746126e-18
5.8768027e-15
3.7175913e-13
3.4192418e-11
2.3082207e-13
1.0829068e-14
5.9699438e-19
1.4318932e-18
1.9861071e-14
1.7432339e-15
3.1428895e-13
2.0344241e-13
5.1114282e-15
9.2515084e-15
1.2276153e-18
1.8574035e-18
2.8286101e-14
6.970495e-16
1.4360047e-14
1.8802603e-15
5.5969376e-16
5.526937e-16
1.8574031e-18
3.531156e-17
2.9044269e-16
1.4052811e-17
4.7046821e-18
1.9567194e-17
1.2553562e-17
9.7782237e-17
3.763154e-16
1.2015649e-16
3.1479461e-19
4.0982456e-21
7.7832314e-23
2.8321583e-20
1.4821281e-19
1.8612129e-18
4.4020142e-16
1.0681051e-17
3.9124673e-17
6.6222483e-17
2.3867801e-11
3.8658815e-10
2.8713386e-12
2.163838e-09
7.6429111e-07
8.7873241e-09
6.6222483e-17
5.5097242e-12
2.8000578e-11
1.8538417e-10
1.6977282e-12
8.3790345e-15
7.9910509e-07
4.8710051e-08
3.6080844e-15
1.9700336e-11
3.7510028e-13
1.6532994e-10
3.7414384e-12
1.2262587e-15
1.0730165e-08
1.1890942e-08
1.9693312e-10
5.2848798e-12
3.7177989e-13
2.1316028e-10
4.3457331e-12
1.1325928e-15
5.6726353e-16
2.2660241e-18
2.0056299e-13
2.8059499e-13
1.2226474e-11
8.175647e-12
7.304737e-13
6.7915264e-14
1.5528779e-11
3.5693399e-11
5.4508302e-13
7.2979444e-15
2.3922527e-14
1.4169447e-15
1.7273835e-13
3.4095176e-14
7.7691092e-11
3.5372287e-17
7.4430294e-16
1.8434856e-17
2.7281931e-18
1.1960189e-16
9.3887138e-15
1.6084865e-15
1.7446427e-16
3.0377359e-16
2.2497435e-17
1.041944e-19
5.7125541e-20
4.6047382e-19
2.67024e-18
9.9693722e-17
3.242734e-15
2.7175899e-16
3.3777169e-06
5.3140598e-07
2.7473157e-12
1.24145e-10
1.4960325e-13
4.1575661e-05
1.9899332e-07
9.020908e-09
2.3865557e-07
5.5104167e-12
8.8738878e-10
1.495998e-13
1.4860318e-13
3.4399196e-05
2.5396193e-07
4.2173286e-08
2.6424921e-09
1.0116818e-10
2.2909014e-09
1.4860318e-13
1.421792e-13
3.6266216e-06
1.8181839e-07
4.8215861e-09
1.563018e-10
1.5253987e-10
4.3235781e-10
3.1484973e-10
1.363619e-13
1.2262587e-15
3.0618736e-08
8.8753173e-16
8.3601894e-13
4.8447065e-12
3.0577592e-11
2.2311993e-11
1.3518716e-13
1.825133e-15
1.513653e-13
6.1712931e-10
2.0476448e-12
3.3352438e-15
7.0896341e-17
8.863349e-17
1.3211602e-13
9.8720984e-14
4.054992e-10
8.6391503e-11
5.6739e-15
6.1528297e-17
7.0381889e-17
1.1196885e-14
8.5993772e-14
2.7391596e-14
1.7114513e-16
1.7446463e-16
3.1197665e-16
1.3799267e-18
6.3141555e-19
5.4946855e-17
3.6375936e-15
1.7427164e-15
2.0329216e-15
2.8754873e-15
5.8386647e-06
5.9812456e-07
2.7473157e-12
2.7473157e-12
0.00019720257
2.2395939e-05
3.4149482e-11
2.3078285e-06
3.6828171e-07
4.3530938e-09
2.7473157e-12
2.7312611e-06
0.00011254911
3.3310596e-05
3.5900311e-11
4.1813437e-08
5.4327894e-09
5.0947147e-12
6.0554858e-09
5.9240955e-07
4.3419591e-09
5.4335075e-06
1.7492323e-08
3.8214861e-11
1.7892378e-10
1.3980959e-10
4.8522454e-10
2.2835512e-09
7.5032879e-14
1.8251396e-15
5.6102458e-08
3.3724413e-10
2.3048052e-11
3.5414326e-13
1.9722458e-16
2.0227281e-16
1.2164205e-15
3.4715944e-16
3.7658396e-10
1.5251722e-09
7.2845424e-12
3.1291112e-15
1.9557236e-16
1.0585711e-16
1.6406504e-16
1.041895e-16
4.5751764e-10
6.8834409e-10
4.6622192e-14
9.38637e-16
1.7575671e-15
2.9861696e-16
2.6771337e-17
4.0539927e-17
1.041895e-16
1.7578535e-16
2.2984063e-14
5.1267981e-17
4.3965395e-16
8.6086566e-16
8.5712075e-18
3.9631381e-17
1.3030299e-12
2.0202756e-14
1.0883204e-05
2.7477078e-12
2.7473157e-12
1.6111874e-07
0.00019743306
2.069134e-05
3.4104691e-11
7.4127021e-10
2.1693737e-08
6.6834479e-08
2.7477078e-12
3.0622459e-06
0.0001974264
2.4995518e-05
3.4044524e-11
3.1193873e-08
4.2347249e-12
4.1479051e-12
3.4045926e-12
1.1888965e-11
0.00019736408
5.5838635e-06
3.5900311e-11
3.7987572e-11
4.0990269e-10
1.9980099e-10
2.7210591e-09
2.739262e-11
0.00013969488
1.0430517e-06
5.1341586e-08
3.8215106e-11
1.4886941e-10
5.3450106e-10
5.7137579e-09
9.8112061e-08
1.5202243e-05
1.0475201e-06
1.5091631e-12
1.5893789e-09
1.9717593e-11
1.2264103e-15
1.0903261e-16
2.49665e-09
1.2192311e-15
3.4715944e-16
5.9359949e-10
1.2616573e-09
3.4223642e-13
1.1395067e-14
1.923604e-17
1.9153387e-16
2.0452345e-13
1.0418951e-16
1.810466e-10
1.9064249e-16
9.2205666e-13
3.5937088e-15
1.468587e-17
9.4264573e-18
4.1451217e-16
3.5000219e-17
1.4982845e-11
3.0089705e-14
1.8590848e-05
1.2833545e-06
1.2133477e-08
3.5934267e-07
0.00019743205
1.0794697e-05
9.8128914e-06
4.007642e-06
1.0431519e-11
2.1011277e-07
4.0684456e-07
3.0817838e-06
0.0001974327
7.856428e-06
3.4044524e-11
3.4044525e-11
7.333122e-12
1.9242431e-08
1.3309565e-07
2.8017737e-11
0.0001974027
2.1992222e-06
3.4044524e-11
3.795613e-11
8.6207924e-10
1.03619e-09
3.5684972e-11
3.5051323e-11
0.00019734591
2.6569943e-11
3.501115e-08
3.843711e-11
8.9771617e-14
2.9161371e-10
7.1746461e-09
1.0224815e-07
0.0001972725
1.5158498e-12
1.0329261e-12
1.1399071e-09
8.7847975e-15
2.2538681e-15
7.7572987e-15
6.3567995e-07
0.00013944037
3.2628538e-07
2.274237e-13
1.0216044e-09
6.0352422e-11
1.1298184e-14
9.381507e-13
6.5276534e-07
2.6348172e-05
7.3667488e-07
5.0017264e-16
2.3694218e-16
2.3049184e-14
5.3601102e-13
9.2710589e-10
5.5532905e-08
7.5060461e-13
4.4545094e-09
4.7033367e-11
5.3480729e-15
7.0580725e-06
1.3289966e-06
4.9775609e-08
1.5560676e-09
0.00011879223
3.1734699e-06
3.94772e-05
0.00012869058
2.3612287e-11
3.2300398e-07
6.4801372e-07
3.88041e-11
0.00014508039
8.559236e-09
1.0510041e-07
1.1949175e-05
2.638217e-09
2.5258226e-07
5.883956e-07
3.6744369e-11
0.00016403207
4.3686398e-11
4.5109711e-11
3.8437156e-11
1.1212488e-09
3.5388018e-11
2.9013021e-09
3.5684972e-11
0.00014593006
3.5741347e-11
6.7928119e-09
6.4907882e-10
7.3701018e-13
3.5092989e-11
8.3313119e-10
1.9416757e-11
0.00019562459
1.8097735e-11
6.5809416e-10
2.3443061e-09
2.2581533e-11
1.4462352e-10
9.0351971e-13
1.6634051e-12
0.00019552982
2.4234014e-13
7.4816865e-15
8.6284651e-10
2.1973169e-10
2.1427634e-14
1.1884597e-12
7.267546e-08
0.00017666515
3.2249419e-07
3.1166096e-15
5.0017263e-16
5.7513766e-10
4.5760491e-14
7.047553e-10
9.3467483e-08
2.3533756e-05
1.1235068e-07
7.4812938e-15
1.017271e-12
4.5573947e-06
3.2404266e-07
8.1247757e-10
0.00013383287
9.186173e-05
7.3429877e-09
3.0129039e-05
0.00015860737
2.2262504e-11
3.2381822e-07
7.3964087e-10
0.00026593017
5.5563919e-05
2.1232319e-08
9.5855321e-10
0.00014752871
2.5676388e-09
2.4990773e-07
2.0060534e-07
3.88041e-11
4.8245534e-05
7.264523e-07
8.8268017e-10
3.126168e-05
7.6948842e-10
3.8129453e-11
5.4520356e-09
0.00014483814
4.3497989e-05
4.3686398e-11
3.2098678e-09
6.5415886e-10
2.7579255e-12
1.5536497e-09
8.3711973e-10
0.00018835555
4.2390766e-05
1.7967032e-11
1.309697e-09
2.5737681e-09
2.6087987e-11
5.4520727e-09
3.4150485e-07
5.6060263e-05
6.7660834e-05
1.0189426e-13
6.0675577e-15
9.3415254e-10
9.0199584e-11
2.4823155e-09
2.1217983e-08
1.0586967e-09
5.9910979e-05
5.2852178e-07
5.7640289e-15
3.1166096e-15
4.3926657e-10
5.1960397e-14
5.7259124e-14
2.6444805e-12
3.4774311e-06
2.5272699e-08
6.0193924e-15
1.8019716e-12
1.3499541e-05
1.105675e-08
7.3951561e-10
0.0013051715
0.00036741102
1.537477e-09
3.9824061e-05
0.00015858679
4.6151336e-07
7.5991319e-08
5.0911266e-10
0.00075002232
0.00036283911
1.2256365e-09
1.5340448e-06
0.00015893628
2.2854634e-07
8.268742e-08
2.7870972e-10
0.0015499932
0.00010031505
8.9204775e-10
8.8754357e-10
0.00015892363
6.0753712e-10
6.6279114e-11
1.8652444e-10
0.0015497016
0.000270664
1.8629728e-09
3.8396566e-09
3.7033481e-05
2.9191735e-12
2.4198378e-10
0.00010477913
0.00059341284
0.0002508853
1.5312121e-06
2.6823644e-10
4.5846235e-10
2.6267352e-11
3.1378431e-10
1.3263942e-05
0.0014548934
0.00017329596
4.5057769e-12
9.9367759e-14
7.474467e-10
9.1012083e-11
2.0738096e-09
3.1819114e-11
0.0013520075
1.3748622e-07
2.0473474e-12
2.9277597e-12
1.4152825e-11
1.7568785e-10
3.5686865e-11
2.6581229e-12
0.00074186635
6.8898782e-06
2.9996185e-13
1.9224091e-14
5.4585355e-12
1.1766807e-05
2.9970257e-09
0.00014975596
0.0015501441
0.0010766404
0.00040001102
1.9422857e-05
0.00011442598
4.2771665e-06
2.0255567e-09
0.00020613283
0.0015503994
0.0015501441
0.00030828494
7.8956597e-07
0.00015895708
1.4686536e-06
1.0623558e-09
0.00018324049
0.0015504008
0.0015293206
6.5669009e-05
1.3091163e-06
0.00015893627
1.059307e-06
3.2748195e-10
0.00017031507
0.001550398
0.001550401
0.00015825515
9.2010754e-07
8.200304e-05
8.3451726e-07
4.3441024e-10
0.00019537864
0.0015503904
0.0015038712
0.00016272695
1.8792787e-11
5.3149399e-10
3.6165891e-10
4.0967646e-10
0.00011597173
0.0015500116
0.0015491077
9.6150453e-05
4.5057822e-12
1.4517857e-09
3.5120855e-10
3.685358e-10
3.4999634e-05
0.0015491064
0.0015458619
7.525422e-05
2.047348e-12
2.0994593e-10
3.5116587e-10
6.510202e-08
6.9991952e-05
0.0014070617
0.0011628063
0.00010117495
2.9920373e-13
1.6223376e-11
8.2515708e-06
2.1284565e-09
0.00029736056
0.0015499763
0.00074837779
7.4808663e-05
1.4108065e-05
1.9622914e-05
1.5349668e-06
1.6194084e-09
0.00034805752
0.0015502598
0.00085838779
0.00011304613
2.9082671e-06
5.0460562e-05
6.3020612e-07
1.2392299e-09
0.00033763082
0.0015503917
0.00066552569
7.5840974e-05
2.2703179e-06
9.6086407e-05
8.8954477e-07
7.5787059e-10
0.00036824691
0.0015503548
0.00076570007
0.00011782111
3.6216822e-11
2.3163149e-05
6.9150789e-07
4.7099261e-10
0.00035887256
0.0015499563
0.00063148946
0.00011113749
3.2491786e-11
3.6216822e-11
8.2421697e-08
4.344089e-10
0.00030952343
0.0015490497
0.00052721611
9.0274852e-05
1.8792787e-11
1.2607561e-09
3.685358e-10
4.2032739e-10
0.00020525634
0.0015465137
0.00042992757
7.0336601e-05
1.5080934e-08
3.6628389e-10
1.6885199e-08
7.1666849e-09
0.00026231469
0.0015419271
0.00028232573
9.4162005e-05
3.2877935e-11
6.0231934e-11
5.6972866e-07
1.7987918e-05
7.4203527e-05
0.00051108432
9.0552128e-05
6.4328372e-07
6.4102595e-07
4.1089854e-08
8.3847301e-08
4.1818157e-06
0.00011651136
0.00066383831
5.7347433e-05
4.1368682e-06
2.6578917e-06
7.1400364e-07
4.263462e-08
9.650039e-10
0.00012370769
0.00076859309
8.8082697e-05
3.2343269e-05
3.3112079e-06
2.5386215e-06
2.4159776e-07
7.6094887e-10
0.00015734255
0.00078928473
7.2059734e-05
5.487312e-05
3.4242195e-06
3.6983833e-06
3.019221e-07
5.5381556e-10
0.00020433369
0.00059697452
8.6931078e-05
4.4101871e-05
1.7434265e-06
1.9568915e-10
9.7789335e-08
4.7099261e-10
0.00017392796
0.00061051827
6.9041621e-05
2.7985115e-05
3.7079839e-11
1.2667476e-09
2.0059323e-08
5.2788412e-10
0.00016086972
0.00063686346
4.4208159e-05
2.5631812e-05
1.0143664e-06
1.055438e-09
3.974001e-08
6.2530094e-10
0.00017181333
0.00028938038
2.3629483e-05
5.2362992e-05
5.0751013e-06
6.2616185e-11
3.7033511e-08
1.1764607e-05
1.1766021e-05
0.00017988067
0.00016009596
9.7896813e-07
1.7514835e-08
1.7507695e-08
3.6339854e-08
5.5070545e-06
1.6514649e-05
0.00014504433
0.00045784505
3.843815e-06
4.1073899e-07
1.7514835e-08
3.755942e-08
7.4266661e-06
2.0325901e-05
6.3004786e-05
0.00031204445
2.0423664e-05
5.9739177e-07
1.9197591e-08
3.8201931e-08
9.1042363e-06
8.6007003e-05
8.4955937e-06
8.3805422e-06
6.0289761e-07
6.0011188e-07
2.7502671e-08
3.7832136e-08
1.659213e-06
0.00020443806
0.00012881339
3.0131549e-06
1.1059392e-06
9.9344562e-07
2.2126838e-08
3.8158926e-08
5.5381556e-10
0.00019828593
0.00013699874
6.6414179e-05
2.5999868e-05
6.0412669e-07
1.8057544e-08
3.2018971e-08
6.2530094e-10
0.00019813548
2.6556803e-05
8.6681244e-05
2.2105174e-05
1.2624407e-06
2.729377e-08
5.0585143e-08
6.7160958e-10
0.00019773609
2.0461804e-05
2.5309507e-05
4.7026072e-06
3.8510603e-06
1.2711746e-07
0.00041364139
1.3810942e-07
0.000189371
0.00012037731
0.00079510967
9.8089141e-07
3.1859602e-06
1.7511353e-08
0.00010455656
1.3162928e-07
1.3976566e-07
0.0001474092
0.0007953314
3.7814112e-06
6.5203255e-06
1.7507759e-08
3.836093e-08
9.0146358e-08
1.7926698e-05
6.6846595e-05
0.00027757792
2.7139001e-05
1.0946303e-05
1.8732477e-08
2.3950698e-08
2.4271147e-06
4.0325285e-05
7.6495893e-06
7.8946691e-07
7.061435e-07
6.447818e-06
1.3684331e-07
5.2356568e-09
1.2454483e-09
0.00013403384
2.3003908e-05
0.00010635404
1.8993703e-05
2.1390922e-06
1.1218923e-07
1.1015885e-09
1.046727e-09
0.00019828607
5.2004765e-05
0.00041390817
5.4105693e-05
4.0564227e-07
1.8314503e-08
8.9576412e-10
6.7160958e-10
0.00019822674
1.4061388e-05
0.00041325988
2.8571114e-05
6.2169704e-07
1.9782671e-08
9.0832875e-08
8.2496669e-10
0.0001546207
1.3829392e-05
6.0559763e-05
6.4693117e-06
8.475949e-07
4.7038822e-08
0.00089031412
0.00024358976
0.00062343248
8.902345e-06
0.00031788704
0.00047040997
2.0844209e-06
0.00012986702
0.00075640708
0.00011003662
0.00062343208
8.5885893e-06
8.8997875e-06
0.00038178489
6.9430478e-06
1.8728388e-08
0.0008733504
8.9660119e-05
0.00040011234
8.2627155e-06
8.678721e-06
9.3157173e-05
8.7258539e-06
3.2321303e-07
0.00063364847
9.6532447e-06
8.2627155e-06
7.8389524e-06
8.3799699e-05
1.5735769e-05
7.7126743e-06
1.3440464e-06
0.00017341016
1.9869338e-05
8.2474265e-05
3.4292438e-05
0.00021516767
3.2030642e-05
2.1914415e-06
2.509785e-08
1.0077966e-07
1.554661e-07
0.0001982897
8.3431145e-05
0.00022907504
9.7021112e-06
1.4824163e-08
1.9117642e-08
1.0455442e-07
4.870793e-07
5.6737848e-05
3.7776564e-05
1.2071895e-07
1.4824163e-08
1.0364487e-08
2.2579296e-08
1.4966037e-07
7.0969087e-07
2.0309933e-05
1.134546e-05
8.5394293e-08
4.5316154e-07
3.2922373e-09
1.4020282e-08
0.00089028609
0.00089030959
4.8388084e-06
0.0044492987
0.016360218
1.8683686e-05
3.088398e-05
0.00039382356
0.00089028609
0.00088978839
2.6719138e-05
0.0036074487
0.014358475
3.5034897e-06
6.644387e-06
0.00018401698
0.00088978678
0.00069192522
0.00018267596
0.0035964867
0.018642631
2.9145551e-07
1.1096569e-07
6.8804303e-06
0.00088852723
0.00033821339
0.00013144584
0.0036638719
0.016538703
0.00063792813
3.1913822e-06
3.5070595e-08
0.00078982445
0.00026089008
0.00015723863
0.0029169037
0.0080881739
0.00065682902
8.7279351e-06
2.569143e-08
0.0002126348
4.2575901e-05
0.00015113792
0.0021180631
0.0057032818
0.00035348619
1.6023714e-05
2.0952973e-08
3.9913481e-07
1.4461355e-06
8.7040412e-05
0.0013513538
0.0034172182
0.00026053369
1.8974198e-05
3.9594286e-07
9.1676128e-08
1.1332486e-06
8.969062e-05
0.00093342422
0.00031031434
3.7177086e-05
1.6798232e-05
1.5382661e-06
0.00029219615
0.00027455836
3.5699269e-06
0.022458684
0.015115209
0.00085213883
0.00014084699
0.00039380333
0.00059868011
0.00067673746
4.8129214e-06
0.021215737
0.015948773
0.0010310502
1.1096569e-07
0.000115294
0.00062343841
0.00052659507
4.6878295e-06
0.01907251
0.018642311
0.0019606295
9.8190828e-08
8.2575236e-07
0.00048702587
0.00023353838
3.4422213e-06
0.019234002
0.015809513
0.0027249777
2.7602548e-07
4.1901663e-08
0.00034245484
0.00011109768
1.9611966e-06
0.017546479
0.020415411
0.0027961596
3.2720905e-08
2.9047296e-08
4.3116828e-05
3.9294643e-07
7.4260923e-07
0.013935775
0.01606546
0.0030794956
2.8869583e-08
2.7969952e-08
2.0756788e-07
6.1040434e-07
1.8206487e-05
0.011453203
0.017041736
0.0020253469
4.724486e-08
4.1563542e-08
2.0386686e-07
1.7890781e-06
0.00013830995
0.010801326
0.01055101
0.00055674912
5.9567923e-07
5.2096821e-07
4.7839329e-06
6.3104801e-07
1.3153468e-06
0.2268462
0.24069038
0.021867324
7.3739176e-07
0.00013092691
3.0734106e-05
5.1273942e-07
0.00090820201
0.2391989
0.23498513
0.029374271
2.1253203e-07
0.00014992104
4.641323e-05
1.0116825e-05
6.1640171e-06
0.23745907
0.23483384
0.028476437
6.0877414e-08
1.3782894e-05
2.7850002e-05
4.3038664e-07
0.00072639917
0.24310903
0.22476253
0.017324128
3.5695574e-08
3.7244234e-08
1.1796126e-05
2.9074256e-07
1.3718535e-06
0.23545662
0.22358601
0.008180258
3.276439e-08
3.4378812e-08
3.0788349e-07
2.6496541e-07
2.9074261e-07
0.23452015
0.18381852
0.0085556904
3.0113891e-08
2.8869275e-08
2.2341186e-07
2.5080924e-07
2.6496392e-07
0.21447002
0.15436012
0.0083547455
1.1370298e-06
3.4015548e-08
2.0876298e-07
3.4286012e-07
2.2152774e-07
0.20241993
0.11933138
0.009841616
2.8155274e-07
3.5523321e-08
3.852718e-05
5.1228061e-07
0.044881697
0.25603086
0.25603087
0.047218952
1.0593053e-06
3.4297632e-06
2.1424049e-06
4.3257117e-07
0.061077151
0.25603086
0.25601937
0.064116316
5.2872282e-07
8.4058074e-05
8.5263176e-07
3.6701406e-07
0.061796704
0.25601937
0.25599481
0.06222
7.2486532e-08
3.4391855e-05
6.9961989e-06
3.3318811e-07
0.069879536
0.2559948
0.2559785
0.063190008
3.8211837e-08
4.70657e-08
1.5925415e-06
2.8148446e-07
0.070156303
0.25597824
0.25596091
0.054854048
3.5695876e-08
3.7244098e-08
2.8148444e-07
2.6731343e-07
0.067010816
0.25595974
0.25584455
0.03531686
3.3662814e-08
4.5028288e-07
2.617863e-07
2.6497565e-07
0.058060009
0.25574017
0.25025227
0.031509763
4.2745484e-08
1.1519401e-07
5.3689441e-07
2.6731099e-07
0.048853705
0.25114666
0.19485394
0.040964571
7.9180905e-07
6.7476688e-07
0.00017390377
0.00013593757
8.5786329e-07
0.10931517
0.24253158
0.0036512924
0.00094185201
0.00028622271
6.42504e-05
5.631871e-05
6.4483024e-07
0.11997223
0.2487921
0.011214887
9.0594564e-07
1.1539864e-06
3.6692421e-07
3.6056556e-07
3.6750883e-07
0.11001677
0.2483813
0.0063553277
8.0786103e-08
4.3879478e-07
3.4061077e-06
3.1751393e-07
3.9203703e-07
0.11928521
0.24955821
0.015481711
4.2439685e-08
4.3990724e-08
8.4109472e-06
2.7519466e-07
6.1513041e-07
0.095911359
0.25042134
2.8397646e-05
3.8211836e-08
4.1748703e-08
2.811646e-07
2.7134995e-07
2.7518191e-07
0.1091137
0.25517239
0.005972492
3.7837682e-08
4.0615359e-08
2.6896412e-07
2.6731105e-07
2.7268564e-07
0.086619193
0.2171216
0.020313348
4.0615845e-08
4.7807623e-08
2.6972066e-07
2.6849003e-07
0.0023280208
0.090583099
0.1384854
0.024307173
6.3117389e-07
2.2889926e-06
8.2759547e-05
4.7404928e-05
6.8466348e-07
0.0051454521
0.042022059
2.5819159e-06
0.0010520423
0.0015167232
7.604231e-05
6.182615e-05
4.5585805e-07
0.0055543356
0.046364419
2.5833537e-06
0.0008080755
0.0015160997
5.9465174e-06
3.5147996e-07
3.8104933e-07
0.0031796761
0.037481747
4.2833541e-06
0.0010283876
0.001510746
3.5299233e-07
3.5027892e-07
3.5147997e-07
0.004968277
0.045836473
2.4178887e-05
0.00065196423
0.001077389
2.1913112e-06
3.1398411e-07
3.5001148e-07
0.0054870779
0.023729687
0.00077086642
0.00037527182
0.0010576645
8.9406762e-06
2.7205313e-07
3.2512078e-07
0.0071493947
0.029600201
0.0017404396
0.00043510578
0.0010325049
4.6989055e-07
2.6881599e-07
2.7189432e-07
0.0046927569
0.01942796
0.0016928515
0.00029289299
0.00062977985
2.7044807e-07
2.693603e-07
2.7042414e-07
0.0058022869
0.024228158
0.00011792601
1.8680154e-05
2.3171985e-05
2.7872082e-05
5.1636052e-05
3.3134256e-05
1.9992344e-07
1.9337917e-06
2.5778886e-06
2.0977701e-09
0.00039435219
2.5408271e-05
1.7917859e-05
8.0373976e-05
4.3570634e-06
2.5767552e-06
2.5769701e-06
2.0977701e-09
0.00012943737
0.00014994959
2.45446e-05
1.9384394e-05
2.911181e-06
0.0001077502
5.8269503e-06
3.5338375e-09
7.3780373e-05
0.00082143374
0.00041252978
1.4135152e-05
2.7182386e-06
3.1888374e-05
2.3998443e-05
7.3771835e-05
2.3169562e-05
0.00024234838
0.00069788064
0.00013040951
7.3353034e-06
7.9788555e-05
0.00013648268
0.0003577705
4.2075733e-05
1.0293756e-06
0.00061632269
0.00019921955
3.1915134e-05
4.8136674e-05
2.2926186e-05
4.5558748e-05
5.5605032e-05
3.3187246e-05
0.00030977047
0.00020613085
5.6426718e-05
9.4772504e-05
4.4473165e-05
3.3983833e-05
0.00018611672
8.2434036e-05
0.00030382259
0.00018877454
4.2614592e-05
2.5879994e-05
5.0112873e-05
6.4116328e-06
8.81976e-05
3.4350154e-05
2.4912075e-05
1.6856774e-06
1.8846316e-10
4.3135144e-09
1.5358995e-07
2.4619757e-09
2.8025717e-16
2.046609e-05
1.5994999e-05
2.4281609e-05
2.2655142e-06
3.1424478e-08
6.034731e-07
1.518517e-08
2.0482045e-13
0.00047664614
3.013257e-05
1.8238153e-05
1.8388394e-06
3.4742783e-07
1.3345317e-06
7.0160258e-09
1.5916204e-12
0.00082258896
0.00030858978
2.6732179e-05
1.2085302e-06
1.0997086e-07
1.3733218e-06
7.8312142e-10
1.1567632e-12
0.00082433252
0.0007055069
5.9709895e-05
2.3613265e-06
2.4723936e-07
1.1313583e-06
1.5291415e-05
1.1572356e-06
0.0008222301
0.000820093
0.00011041626
3.2033667e-06
3.9370909e-07
1.3866566e-08
4.2417258e-05
4.5230732e-06
0.00076077045
0.00077970958
9.6683171e-05
2.7129017e-06
2.662235e-06
6.3253655e-09
4.2387471e-05
2.0428513e-05
0.00036733172
0.0005538741
0.00011141416
1.4547234e-06
8.0322187e-07
1.5692099e-05
2.3428884e-05
4.6543899e-05
1.5677946e-05
1.6737937e-09
1.4330816e-10
3.3480228e-13
7.2441913e-12
1.2514058e-10
2.472747e-12
5.4191646e-18
2.8279094e-05
4.7604794e-06
1.0908834e-07
9.5415037e-08
4.2738514e-09
3.1911787e-09
7.4584658e-10
2.8025717e-16
9.941327e-05
0.00010119525
6.6724401e-06
4.6574072e-08
1.908328e-08
2.7436808e-08
3.0792305e-09
1.3149394e-13
0.00033245373
0.00013858584
6.1108306e-05
4.309784e-07
5.9118924e-09
1.5835225e-08
1.3564844e-09
3.7348547e-14
0.00044603878
0.00017173247
4.3227749e-05
1.0142478e-06
5.2036961e-09
2.5056568e-08
1.4641493e-08
8.597726e-10
0.00042078215
0.00022873086
1.1607713e-05
5.5258607e-07
7.6618227e-09
1.4495483e-08
1.3049822e-06
5.7415289e-08
0.00045745934
0.00018121809
1.785998e-05
2.1991642e-07
4.2264654e-08
3.9192046e-09
7.9031414e-06
5.5834282e-07
0.0004297037
0.00013331995
8.1856762e-05
1.8599951e-07
2.8060723e-09
8.4445068e-08
9.4678428e-06
1.0729015e-06
9.6310478e-08
1.1194516e-10
1.2265824e-12
2.5428003e-14
1.1215159e-14
1.7100641e-14
3.5682729e-14
3.3789993e-18
1.0668604e-05
2.331457e-05
7.4341139e-07
3.3480625e-13
3.929895e-09
3.0622574e-09
1.903724e-10
4.4311477e-14
0.00010979497
0.00012247873
3.6920083e-06
3.0763573e-10
1.8547517e-08
1.0641583e-08
4.1410522e-10
1.3947632e-14
0.00019767576
0.00028087231
2.7938868e-05
7.3618817e-10
5.0143872e-09
1.5958398e-09
3.7348547e-14
3.1795738e-14
9.6791934e-05
0.00038420552
1.0829052e-05
3.0880193e-09
1.9506665e-09
1.6472672e-09
3.912076e-08
2.3843834e-08
7.4581665e-05
0.00038499151
7.1935518e-07
2.1473607e-09
1.8872079e-09
1.7957384e-09
6.1548946e-09
4.5610575e-08
5.698125e-05
0.00018837432
0.00018589505
2.131119e-09
2.0704249e-09
3.8986442e-09
3.9244975e-09
2.5810664e-08
6.7029344e-05
4.1043585e-05
0.00018658758
3.2691513e-08
2.1468088e-09
2.2383921e-09
2.4523422e-09
3.4710333e-08
3.7759291e-13
1.2135371e-09
1.0653147e-14
9.3978656e-15
8.1425838e-15
1.9880958e-14
9.7840618e-16
3.3474206e-18
3.919699e-11
2.4857554e-05
9.7111506e-06
2.6019025e-06
1.1161538e-07
9.3587373e-10
1.1905425e-12
1.4070732e-15
2.5316079e-05
0.00018674687
3.1041713e-05
5.0182484e-07
1.9041977e-08
9.9914378e-10
1.2695087e-11
1.5299202e-15
8.1675789e-05
0.00029574956
4.5133197e-05
1.5526038e-09
1.4903955e-08
1.0378872e-13
7.1419286e-14
1.7898158e-10
0.00014582882
0.0003845591
6.6906585e-05
2.0687211e-09
1.9865038e-09
5.4322103e-07
2.1213369e-07
3.7011594e-08
0.00010223475
0.00038602999
5.7942728e-05
2.0312078e-09
1.9762058e-09
8.9345558e-08
2.513594e-07
2.246843e-07
0.00013497003
0.00038667672
0.00031837487
2.0628836e-09
2.0313015e-09
6.4142026e-09
7.5156729e-08
6.3341089e-07
0.00021811051
0.00038630966
0.00012184896
2.1311188e-09
2.1517527e-09
2.1936892e-09
2.229966e-09
1.6911329e-06
1.133305e-14
8.7614592e-10
7.1216082e-13
8.1425838e-15
7.9418547e-15
3.8764302e-14
7.4377286e-16
6.9447859e-20
8.9190895e-07
1.4591393e-05
3.3782128e-05
8.2778581e-06
3.3420911e-07
4.0986748e-11
2.8587447e-14
9.1061972e-17
6.6555302e-06
9.9726914e-05
0.00012239517
1.995534e-05
4.7955075e-09
9.9232745e-12
1.7221095e-12
5.6898903e-14
2.0900918e-05
0.00018493085
0.0001522146
2.2155276e-05
4.4125531e-12
1.7617717e-12
9.5367074e-13
7.0145309e-11
5.7088044e-05
0.00026837331
0.00014410472
1.4901387e-05
1.0240186e-05
9.7851475e-07
1.6998339e-07
2.9399397e-08
6.7636941e-05
0.00036315787
0.00024381499
2.4261286e-06
5.0054554e-06
1.9890637e-06
7.9337069e-07
2.0216297e-07
8.5507641e-05
0.00038667672
0.00036289026
2.1311188e-09
6.9891252e-07
9.2881096e-08
1.2044331e-06
1.4189888e-06
0.00016584316
0.00038667672
0.00018972689
2.2172823e-09
1.5846099e-08
2.2299659e-09
1.1203298e-06
2.8893008e-06
1.2579642e-10
5.8193733e-11
1.529768e-11
1.1165416e-14
5.9187125e-15
7.7421166e-15
8.021374e-17
2.5612578e-21
4.8827594e-07
1.5476521e-05
6.8132671e-05
7.5858401e-06
8.9774301e-08
7.8389651e-12
5.9071775e-15
1.0139696e-17
2.4330877e-07
4.9276665e-05
0.0001712691
3.6642419e-05
7.4547341e-12
2.2671495e-12
4.8655803e-13
2.2821261e-14
9.7671134e-08
5.5334232e-05
0.00017134661
7.5569321e-05
8.868502e-07
4.3295898e-11
5.1590634e-13
8.5394991e-12
1.5764866e-06
4.6383539e-05
8.1872577e-05
7.4072787e-05
2.0008204e-05
4.7341779e-07
1.13101e-07
1.3468406e-08
9.7206921e-06
0.00010926377
0.00018682709
3.6143043e-05
2.2162452e-05
3.6582717e-06
1.0950934e-06
1.1888898e-07
3.173444e-05
0.0002414903
0.00034208
3.1913186e-05
5.1134321e-06
1.7789783e-07
3.8314468e-06
1.2339744e-06
8.4472094e-05
0.00038630966
0.00038178478
1.6975186e-05
1.4340743e-07
2.2846619e-09
5.9764777e-06
2.7303386e-06
4.8221236e-12
2.5600975e-12
2.4614723e-06
4.2778668e-08
7.0414455e-15
2.6173777e-15
2.7775828e-18
2.8917276e-23
4.0311398e-08
2.1525959e-05
0.00010290054
1.0108543e-05
1.925271e-12
9.9995189e-13
1.2192367e-15
8.6360903e-19
3.3709083e-07
3.1197435e-05
0.00015989355
3.6336703e-05
7.1818197e-12
8.9690864e-13
3.525396e-13
3.9893785e-15
9.744696e-07
1.5449291e-05
7.9687633e-05
6.6212509e-05
2.5186617e-06
1.8312621e-10
4.2315759e-12
2.422241e-13
4.9468272e-06
4.3699841e-05
0.00035833396
7.3103495e-05
1.0307489e-05
4.239691e-08
2.5306737e-08
1.8005897e-09
1.5757629e-06
0.00012113202
0.00038002351
6.97529e-05
2.1167862e-05
3.5227036e-06
9.0827637e-07
3.813844e-08
2.2414468e-06
9.1039225e-05
0.00038046029
7.1647344e-05
8.1487146e-06
9.1050694e-06
4.5625974e-06
3.8593241e-07
5.3964147e-06
0.00012065439
0.00038099709
4.6170027e-05
3.3108273e-07
7.1109268e-06
7.6231497e-06
8.4590849e-07
1.6578615e-14
1.5044951e-14
8.4701135e-08
1.8389107e-13
3.5325636e-13
2.7586232e-15
5.3503731e-25
2.9809311e-25
2.0854577e-09
7.6256021e-06
6.5691155e-05
3.8908015e-06
2.388638e-13
8.0506603e-14
3.1191188e-17
1.718014e-20
8.1610594e-07
1.4731386e-05
0.00013117092
2.5772767e-05
5.9180455e-12
5.580025e-12
2.1567484e-13
9.4428544e-17
1.6603161e-07
2.943936e-05
0.00012060736
3.5784349e-05
2.7766994e-07
1.7639207e-10
6.4013957e-15
2.0319427e-15
2.6530712e-07
6.2837403e-05
0.00025213283
4.6927139e-05
5.5551272e-07
5.2861238e-10
5.0689132e-14
2.1213874e-11
1.8590042e-11
5.5209675e-05
0.0003790906
5.6558127e-05
8.1511917e-06
2.1910855e-06
2.9351797e-07
2.6360741e-09
2.1621457e-11
1.6376099e-05
0.00038002351
5.1126935e-05
1.0262282e-05
1.1142614e-05
2.3645214e-06
1.4334692e-08
4.4112717e-11
2.2085489e-05
0.00031767609
4.9726176e-05
4.3147151e-06
1.7136294e-05
4.8522147e-06
2.1185697e-08
6.8905445e-19
2.3673058e-18
2.4116711e-14
1.1606025e-13
2.1815404e-13
2.4427525e-16
4.2474974e-27
2.5750227e-27
2.3673059e-18
4.5253828e-08
1.532929e-05
2.315156e-07
2.7033278e-11
8.4001818e-16
6.6515433e-19
6.7026385e-23
9.7738545e-07
2.6892679e-06
0.00013645921
8.5718771e-06
1.4578545e-09
1.0148002e-12
5.3788159e-14
8.3899846e-19
3.7464896e-15