/*--------------------------------*- C++ -*----------------------------------*\
  =========                 |
  \\      /  F ield         | OpenFOAM: The Open Source CFD Toolbox
   \\    /   O peration     | Website:  https://openfoam.org
    \\  /    A nd           | Version:  13
     \\/     M anipulation  |
\*---------------------------------------------------------------------------*/
FoamFile
{
    format      ascii;
    class       surfaceScalarField;
    location    "0.03";
    object      alphaPhi.water;
}
// * * * * * * * * * * * * * * * * * * * * * * * * * * * * * * * * * * * * * //

dimensions      [0 3 -1 0 0 0 0];

internalField   nonuniform List<scalar> 
150720
(
0
0
0
0
0
0
0
0
0
0
0
0
0
0
0
0
0
0
0
0
0
0
0
0
0
0
0
0
0
0
0
0
0
0
0
0
0
0
0
0
0
0
0
0
0
0
0
0
0
0
0
0
0
0
0
0
0
0
0
0
0
0
0
0
0
0
0
0
0
0
0
0
0
0
0
0
0
0
0
0
0
0
0
0
0
0
0
0
0
0
0
0
0
0
0
0
0
0
0
0
0
0
0
0
0
0
0
0
0
0
0
0
0
0
0
0
0
0
0
0
0
0
0
0
0
0
0
0
0
0
0
0
0
0
0
0
0
0
0
0
0
0
0
0
0
0
0
0
0
0
0
0
0
0
0
0
0
0
0
0
0
0
0
0
0
0
0
0
0
0
0
0
0
0
0
0
0
0
0
0
0
0
0
0
0
0
0
0
0
0
0
0
0
0
0
0
0
0
0
0
0
0
0
0
0
0
0
0
0
0
0
0
0
0
0
0
0
0
0
0
0
0
0
0
0
0
0
0
0
0
0
0
0
0
0
0
0
0
0
0
0
0
0
0
0
0
0
0
0
0
0
0
0
0
0
0
0
0
0
0
0
0
0
0
0
0
0
0
0
0
0
0
0
0
0
0
0
0
0
0
0
0
0
0
0
0
0
0
0
0
0
0
0
0
0
0
0
0
0
0
0
0
0
0
0
0
0
0
0
0
0
0
0
0
0
0
0
0
0
0
0
0
0
0
0
0
0
0
0
0
0
0
0
0
0
0
0
0
0
0
0
0
0
0
0
0
0
0
0
0
0
0
0
0
0
0
0
0
0
0
0
0
0
0
0
0
0
0
0
0
0
0
0
0
0
0
0
0
0
0
0
0
0
0
0
0
0
0
0
0
0
0
0
0
0
0
0
0
0
0
0
0
0
0
0
0
0
0
0
0
0
0
0
0
0
0
0
0
0
0
0
0
0
0
0
0
0
0
0
0
0
0
0
0
0
0
0
0
0
0
0
0
0
0
0
0
0
0
0
0
0
0
0
0
0
0
0
0
0
0
0
0
0
0
0
0
0
0
0
0
0
0
0
0
0
0
0
0
0
0
0
0
0
0
0
0
0
0
0
0
0
0
0
0
0
0
0
0
0
0
0
0
0
0
0
0
0
0
0
0
0
0
0
0
0
0
0
0
0
0
0
0
0
0
0
0
0
0
0
0
0
0
0
0
0
0
0
0
0
0
0
0
0
0
0
0
0
0
0
0
0
0
0
0
0
0
0
0
0
0
0
0
0
0
0
0
0
0
0
0
0
0
0
0
0
0
0
0
0
0
0
0
0
0
0
0
0
0
0
0
0
0
0
0
0
0
0
0
0
0
0
0
0
0
0
0
0
0
0
0
0
0
0
0
0
0
0
0
0
0
0
0
0
0
0
0
0
0
0
0
0
0
0
0
0
0
0
0
0
0
0
0
0
0
0
0
0
0
0
0
0
0
0
0
0
0
0
0
0
0
0
0
0
0
0
0
0
0
0
0
0
0
0
0
0
0
0
0
0
0
0
0
0
0
0
0
0
0
0
0
0
0
0
0
0
0
0
0
0
0
0
0
0
0
0
0
0
0
0
0
0
0
0
0
0
0
0
0
0
0
0
0
0
0
0
0
0
0
0
0
0
0
0
0
0
0
0
0
0
0
0
0
0
0
0
0
0
0
0
0
0
0
0
0
0
0
0
0
0
0
0
0
0
0
0
0
0
0
0
0
0
0
0
0
0
0
0
0
0
0
0
0
0
0
0
0
0
0
0
0
0
0
0
0
0
0
0
0
0
0
0
0
0
0
0
0
0
0
0
0
0
0
0
0
0
0
0
0
0
0
0
0
0
0
0
0
0
0
0
0
0
0
0
0
0
0
0
0
0
0
0
0
0
0
0
0
0
0
0
0
0
0
0
0
0
0
0
0
0
0
0
0
0
0
0
0
0
0
0
0
0
0
0
0
0
0
0
0
0
0
0
0
0
0
0
0
0
0
0
0
0
0
0
0
0
0
0
0
0
0
0
0
0
0
0
0
0
0
0
0
0
0
0
0
0
0
0
0
0
0
0
0
0
0
0
0
0
0
0
0
0
0
0
0
0
0
0
0
0
0
0
0
0
0
0
0
0
0
0
0
0
0
0
0
0
0
0
0
0
0
0
0
0
0
0
0
0
0
0
0
0
0
0
0
0
0
0
0
0
0
0
0
0
0
0
0
0
0
0
0
0
0
0
0
0
0
0
0
0
0
0
0
0
0
0
0
0
0
0
0
0
0
0
0
0
0
0
0
0
0
0
0
0
0
0
0
0
0
0
0
0
0
0
0
0
0
0
0
0
0
0
0
0
0
0
0
0
0
0
0
0
0
0
0
0
0
0
0
0
0
0
0
0
0
0
0
0
0
0
0
0
0
0
0
0
0
0
0
0
0
0
0
0
0
0
0
0
0
0
0
0
0
0
0
0
0
0
0
0
0
0
0
0
0
0
0
0
0
0
0
0
0
0
0
0
0
0
0
0
0
0
0
0
0
0
0
0
0
0
0
0
0
0
0
0
0
0
0
0
0
0
0
0
0
0
0
0
0
0
0
0
0
0
0
0
0
0
0
0
0
0
0
0
0
0
0
0
0
0
0
0
0
0
0
0
0
0
0
0
0
0
0
0
0
0
0
0
0
0
0
0
0
0
0
0
0
0
0
0
0
0
0
0
0
0
0
0
0
0
0
0
0
0
0
0
0
0
0
0
0
0
0
0
0
0
0
0
0
0
0
0
0
0
0
0
0
0
0
0
0
0
0
0
0
0
0
0
0
0
0
0
0
0
0
0
0
0
0
0
0
0
0
0
0
0
0
0
0
0
0
0
0
0
0
0
0
0
0
0
0
0
0
0
0
0
0
0
0
0
0
0
0
0
0
0
0
0
0
0
0
0
0
0
0
0
0
0
0
0
0
0
0
0
0
0
0
0
0
0
0
0
0
0
0
0
0
0
0
0
0
0
0
0
0
0
0
0
0
0
0
0
0
0
0
0
0
0
0
0
0
0
0
0
0
0
0
0
0
0
0
0
0
0
0
0
0
0
0
0
0
0
0
0
0
0
0
0
0
0
0
0
0
0
0
0
0
0
0
0
0
0
0
0
0
0
0
0
0
0
0
0
0
0
0
0
0
0
0
0
0
0
0
0
0
0
0
0
0
0
0
0
0
0
0
0
0
0
0
0
0
0
0
0
0
0
0
0
0
0
0
0
0
0
0
0
0
0
0
0
0
0
0
0
0
0
0
0
0
0
0
0
0
0
0
0
0
0
0
0
0
0
0
0
0
0
0
0
0
0
0
0
0
0
0
0
0
0
0
0
0
0
0
0
0
0
0
0
0
0
0
0
0
0
0
0
0
0
0
0
0
0
0
0
0
0
0
0
0
0
0
0
0
0
0
0
0
0
0
0
0
0
0
0
0
0
0
0
0
0
0
0
0
0
0
0
0
0
0
0
0
0
0
0
0
0
0
0
0
0
0
0
0
0
0
0
0
0
0
0
0
0
0
0
0
0
0
0
0
0
0
0
0
0
0
0
0
0
0
0
0
0
0
0
0
0
0
0
0
0
0
4.5310422e-38
7.9250417e-38
1.1186512e-35
5.5284046e-39
1.0822758e-43
4.0293654e-43
4.5309911e-38
1.0748212e-49
1.0159131e-48
1.0822646e-43
-1.0577244e-57
7.8675991e-55
1.0748133e-49
-3.904576e-51
2.9659654e-56
3.9045453e-51
-4.3658578e-45
3.9305787e-50
4.3658146e-45
-1.7297278e-39
1.4552005e-44
1.7297089e-39
3.6159605e-38
1.7979555e-37
8.1701521e-39
5.1492403e-43
1.3885713e-42
7.924847e-38
4.2767346e-44
7.1507386e-48
3.0808741e-47
9.1782261e-43
3.2688517e-53
2.8735456e-52
8.1663316e-48
-1.5726467e-54
9.8197137e-58
3.5046941e-53
-2.356025e-48
6.8655966e-53
2.3559548e-48
-6.0464379e-43
2.0516743e-47
6.0462092e-43
-7.4434819e-38
2.3979554e-42
7.4431831e-38
1.7494879e-37
8.2957891e-36
-4.4030765e-36
1.504904e-47
5.7835903e-47
1.3884984e-42
3.8109958e-50
1.106031e-32
1.0335665e-31
3.2778855e-30
8.8043837e-38
1.1686726e-36
1.1059053e-32
-6.0850462e-58
5.3530072e-42
8.8038484e-38
-6.25646e-52
3.9491789e-56
6.256059e-52
-7.9251298e-47
5.7712476e-51
7.9244902e-47
-3.1713233e-42
3.904338e-46
5.5696299e-42
1.067522e-41
2.7463318e-37
-9.9698192e-38
1.4596139e-49
4.4288201e-51
5.7685513e-47
-7.0535442e-56
1.0988839e-31
6.6354467e-31
2.6066913e-29
1.2360442e-33
2.6070193e-32
1.2057914e-30
-1.7530506e-61
5.071695e-37
1.235537e-33
-1.4719731e-55
1.58744e-59
1.4718126e-55
-1.1522246e-50
1.424362e-54
1.1520674e-50
-3.8077043e-46
6.6156436e-50
5.4865584e-46
1.6597548e-45
2.2888603e-41
-1.2234491e-41
2.7226619e-55
5.408844e-55
4.4280069e-51
-1.7423995e-59
5.1576066e-33
9.8166733e-34
1.1898672e-30
4.814866e-35
4.3667215e-34
8.0872556e-32
-5.7668593e-65
9.9797664e-37
4.9818792e-35
-4.3508312e-59
7.0274196e-63
4.3501227e-59
-2.3563014e-54
4.3366691e-58
2.3558242e-54
-6.2322459e-50
1.5018802e-53
8.2555057e-50
3.2817569e-49
2.8046894e-45
-2.0324234e-45
1.6665997e-59
9.6021281e-59
5.4077171e-55
-4.6838746e-63
4.3107576e-36
1.5613235e-37
9.2114687e-34
9.1262722e-37
4.6545951e-38
3.0874998e-34
-2.4594898e-68
4.1278227e-40
1.9101911e-36
-1.7682421e-62
3.9298458e-66
1.7678466e-62
-7.1116137e-58
1.7893015e-61
7.1096476e-58
-1.5625832e-53
4.8621751e-57
1.9303453e-53
9.4475869e-53
5.5012963e-49
-4.5984406e-49
5.2304692e-62
2.3181281e-62
9.5945514e-59
-1.5434023e-66
7.9143298e-40
6.0025796e-41
1.552809e-37
2.9955241e-40
1.7315975e-41
4.7020515e-38
-1.2872928e-71
1.9552057e-43
7.1213915e-40
-9.1898668e-66
2.6470321e-69
9.1872069e-66
-2.8845712e-61
9.3350388e-65
2.8835458e-61
-5.3633194e-57
2.0617013e-60
6.2884286e-57
3.5924778e-56
1.5263341e-52
-1.3715381e-52
9.0983437e-67
2.317314e-62
-6.2265893e-70
7.2314291e-66
3.1724019e-43
5.8166155e-41
1.5424006e-42
1.1936327e-43
1.7109629e-41
4.0422305e-43
-7.8973862e-75
3.1480427e-43
7.956954e-47
-5.7304693e-69
5.7284175e-69
2.0439231e-72
-1.4619314e-64
1.4612932e-64
5.8088926e-68
-2.3313052e-60
2.6340474e-60
1.0714138e-63
5.5319125e-56
-5.1686279e-56
1.6930537e-59
4.183422e-29
4.6007865e-29
4.9343288e-27
1.3645666e-29
1.2765309e-27
4.3460655e-27
3.4598153e-25
-1.3495916e-23
6.1129085e-24
8.5662402e-22
-8.666514e-25
2.0726261e-22
3.8512194e-20
1.0573853e-26
4.2200701e-24
6.5039032e-22
-1.2722473e-32
1.1436665e-28
2.2158957e-26
-1.3746234e-42
5.4087209e-32
5.4592572e-30
1.2513149e-42
1.9494975e-37
2.9441644e-43
1.5568388e-34
5.3234529e-34
4.6007088e-29
8.8588894e-35
4.7157733e-27
1.5549049e-26
1.5918961e-24
-5.0144789e-27
1.9727868e-24
7.1441077e-22
-1.2191932e-24
4.6356398e-23
9.445259e-21
9.3804624e-26
6.9645415e-24
1.0502676e-21
-1.7846527e-37
1.8084294e-30
9.3917182e-26
-3.4407302e-41
9.3135177e-37
5.4086174e-32
5.6630226e-41
8.3147757e-36
-3.5976981e-39
3.3714456e-25
1.5269946e-24
1.20343e-22
1.3938141e-25
1.7768056e-28
1.3297327e-27
2.409328e-25
2.7461976e-28
2.7931586e-27
1.8277641e-24
-4.205312e-27
2.6073661e-27
4.635827e-23
-3.6527043e-36
1.3788636e-26
9.8543621e-24
-4.1287504e-39
3.921929e-33
1.8045039e-30
-6.4051066e-34
2.5333198e-38
6.4141256e-34
1.5817797e-33
8.9817369e-29
-8.9819591e-29
1.6748295e-28
1.9685475e-27
7.9473542e-25
8.2498774e-28
2.3817383e-31
4.3454607e-30
6.3980604e-28
3.7469888e-32
7.9905862e-31
2.7938712e-27
-2.3309779e-31
1.8405991e-31
2.6074534e-27
-1.6237022e-28
3.641068e-30
1.3947132e-26
-3.7500625e-30
3.345812e-27
2.5952015e-25
-3.8755963e-30
2.5133185e-29
1.821503e-27
2.4385806e-28
2.7728848e-27
-1.9037527e-27
1.8050569e-28
2.737133e-28
1.8720115e-25
8.8728289e-30
2.3519293e-30
1.8631003e-29
1.0106471e-27
5.00868e-35
8.5623138e-34
3.3317187e-30
-6.6012207e-29
2.2782906e-32
6.6173575e-29
-1.6001433e-28
2.702998e-27
1.8168887e-25
-5.2572114e-28
1.4918e-27
1.6357872e-25
-5.3590228e-27
1.0310702e-26
3.0710162e-25
2.7752417e-26
1.0985923e-24
-3.3533996e-27
3.9778364e-30
9.6033877e-32
1.5973932e-27
-9.7024813e-33
9.056733e-32
2.4660595e-32
3.3687944e-29
2.4205254e-31
1.676535e-30
9.5189377e-29
-3.4488851e-29
4.2650359e-27
2.6158102e-25
-3.9503207e-29
4.4797291e-28
7.0180082e-26
-7.3134961e-29
1.0067111e-28
2.9513805e-26
-1.6906273e-28
9.8798138e-29
1.6833292e-26
6.0560743e-29
5.6203022e-26
-2.0844466e-28
4.2661735e-34
1.9103641e-33
9.3697988e-32
-3.1714523e-36
2.6008642e-33
1.1521512e-32
4.8651098e-31
5.2996057e-32
2.9016637e-31
1.3088913e-29
-1.736732e-30
4.3480999e-29
2.3773821e-26
-2.4271391e-30
3.2579193e-30
3.6245919e-27
-1.3841928e-29
1.704314e-30
1.4384665e-27
-1.860281e-31
1.8329764e-29
4.4374291e-27
5.2938345e-32
5.0504339e-29
-1.2390048e-31
6.5620642e-33
1.8885179e-30
-2.02235e-35
4.5049279e-32
2.24933e-33
6.4154328e-31
1.6817058e-32
3.6221075e-33
8.4571469e-31
1.9747527e-32
-5.5895057e-33
5.8670559e-29
1.0076553e-30
-4.0493792e-32
2.0021714e-29
2.9020515e-31
-1.5731721e-30
3.380471e-29
5.2206608e-31
-2.6942759e-32
4.4991397e-28
7.4729915e-30
3.568151e-30
-7.8556219e-34
5.7519146e-32
1.1139653e-29
-1.5201113e-24
1.7666323e-26
1.4715412e-24
-4.8976608e-25
6.0178161e-25
6.9700012e-24
-5.960992e-22
5.4821218e-23
7.3407881e-21
-5.6525272e-24
7.5273586e-22
1.2247848e-19
1.0012416e-23
-1.4229836e-24
1.0960332e-21
0
-9.616854e-22
9.7173054e-22
-1.7823343e-20
2.1997876e-18
2.1834517e-16
-2.2291793e-20
1.3515895e-18
-4.1111214e-24
0
3.3187588e-22
3.2672424e-20
-8.3101506e-21
-9.3591244e-25
6.0454893e-24
6.411794e-22
-5.2410745e-22
8.8936559e-23
1.5705229e-20
-2.7513332e-24
5.743115e-22
1.5928657e-19
3.4472518e-22
3.7931781e-24
1.5019979e-21
0
0
1.856947e-19
-1.7314085e-20
0
2.3449651e-16
-6.2648431e-21
7.3384013e-18
-3.4422241e-25
3.4566525e-25
2.9763309e-24
2.1112009e-22
4.6114752e-22
-1.2013181e-24
1.2312284e-23
1.6701664e-21
-3.078214e-22
1.6810615e-22
1.3288641e-20
-2.3148225e-24
6.3056014e-22
1.4616934e-19
5.2431493e-24
9.332473e-24
2.0198992e-21
0
-1.6369622e-24
1.3206905e-20
-8.1936163e-22
6.5101526e-24
8.9592896e-19
-5.0101499e-25
9.0830358e-19
-2.5133031e-23
2.6607915e-29
2.196136e-28
3.8582605e-24
1.1458715e-29
1.814568e-27
4.5728351e-26
2.7840176e-23
-1.6819302e-22
9.4774841e-24
6.7196146e-22
-1.6233512e-24
4.5184911e-22
1.1885425e-19
7.4179911e-26
5.8115447e-24
8.2785237e-22
5.4741131e-27
-1.5188646e-26
1.9431256e-23
-6.3126389e-30
4.1099304e-26
6.4782118e-24
-2.005578e-30
2.4155728e-27
-4.9050878e-25
5.9089625e-26
6.1721457e-25
5.0026884e-23
1.1841043e-26
2.306537e-27
6.4314627e-26
6.4159334e-24
-1.1227136e-24
1.1280523e-23
1.322696e-21
-2.0419956e-26
4.4543842e-26
8.9872138e-22
2.4841298e-26
2.5394725e-26
2.2329254e-23
2.2131626e-27
1.1008245e-25
3.6402864e-23
-1.6669666e-29
3.8038474e-29
3.6184315e-25
9.3298672e-30
1.195462e-24
-7.5770643e-26
7.9901207e-27
8.8336693e-25
8.6853189e-23
-2.3597809e-25
2.1499526e-27
2.8970438e-26
2.8098029e-24
-7.9535927e-27
3.0546626e-26
4.8250221e-23
-2.4256698e-27
1.0654872e-27
4.7326595e-24
1.6257881e-27
3.8867787e-27
2.7511058e-24
-3.2773488e-30
3.7261656e-27
2.6172418e-24
-2.2601545e-28
5.9389493e-29
3.7235664e-26
7.4086855e-28
5.6617995e-26
-3.0568525e-26
9.4067924e-29
4.0550678e-29
8.4412769e-25
-3.813401e-27
3.0354899e-29
1.0179043e-29
4.0779304e-26
-1.2580698e-29
0
1.4295002e-26
-5.4998409e-29
4.2976968e-30
8.8921402e-26
4.9188659e-30
2.3893311e-29
6.6585808e-26
-1.5388831e-27
8.8741371e-28
4.976377e-25
-1.0182705e-27
1.8562835e-26
8.8312596e-25
1.6893891e-27
3.4779219e-25
-1.2123255e-27
4.7510139e-32
1.2843998e-27
-1.6216711e-30
1.5078449e-29
4.4391843e-33
2.4018812e-29
2.2840215e-31
9.1049433e-34
2.3944005e-30
2.6795009e-32
-1.6195176e-31
1.3222423e-28
1.38951e-30
-2.936353e-31
8.3076089e-28
8.642569e-30
-2.9994655e-27
1.0336626e-26
8.1247556e-29
-1.1341504e-28
1.1148447e-24
2.4477284e-26
4.1699539e-26
-1.3384897e-28
1.6614255e-28
3.6757896e-30
-2.801392e-23
2.7886504e-23
8.5210085e-28
-2.9430029e-23
-4.8791162e-24
4.0944302e-23
-1.5613583e-21
-1.2492695e-23
7.4617571e-21
0
-1.3860554e-22
1.2653012e-19
1.2319204e-22
-7.809466e-23
1.4558831e-21
6.8642134e-21
-6.8403631e-24
8.1658174e-19
-5.8115827e-19
1.0579248e-21
1.8223999e-16
-2.9479006e-19
2.4241773e-18
-1.1895579e-20
0
-3.404721e-26
9.0603611e-19
-8.7339199e-19
-2.6929645e-23
-2.9027946e-23
5.1526186e-21
-1.8962447e-21
-3.230606e-25
4.330398e-20
-1.1790148e-23
-2.4542982e-22
2.5239793e-19
1.8291646e-23
-2.1316336e-22
2.4256523e-21
0
-8.8289022e-25
1.8577514e-19
-1.403283e-19
-5.5680227e-20
5.9381855e-16
-5.3093582e-19
2.3542472e-17
-4.8812992e-20
0
-1.8415299e-21
2.1658823e-21
-5.8263096e-23
-1.7345201e-24
-1.422655e-23
4.0509768e-20
-2.4198651e-21
-9.4210649e-26
1.607446e-20
-4.3920526e-23
-1.4199467e-22
3.4099011e-19
5.403776e-23
-3.9140211e-22
5.3587489e-21
0
-6.8073618e-26
1.3288899e-20
-3.1116829e-20
-1.4804103e-23
2.6484179e-17
-1.3480682e-21
9.2628893e-18
-1.4220975e-21
9.1011293e-23
-1.3948218e-23
2.0977246e-19
-2.4030901e-20
-2.1814629e-24
-9.3129176e-25
1.6383917e-20
-3.6444553e-21
5.5882624e-24
4.6537312e-21
-7.0999596e-23
3.5202828e-22
5.3163118e-19
2.926714e-23
-8.8986845e-23
7.8098728e-21
1.5600387e-26
-1.5726767e-24
7.0058978e-23
-1.8942553e-27
-3.2619323e-22
3.2782467e-22
-1.3362873e-21
1.9343959e-24
-1.3696226e-23
9.0982926e-25
-3.7592728e-24
4.5930094e-22
0
-7.3052126e-23
-1.6858676e-26
1.0055455e-21
-1.9368907e-22
6.5480964e-23
4.1312615e-20
-1.2734671e-23
1.0091327e-24
2.9300989e-20
2.1629358e-24
-1.4446814e-23
1.5609981e-21
1.3708279e-24
-1.2775095e-24
2.2760355e-22
-3.4114749e-23
-1.9756992e-21
2.8961853e-20
-2.5281591e-27
1.0825539e-19
-2.3770094e-24
8.4693428e-26
-5.9815367e-27
1.4769689e-21
-2.6173349e-22
-1.2819237e-25
-1.6015886e-28
1.5492187e-23
-2.5421834e-26
0
5.7549182e-23
-1.8142398e-24
1.3086875e-27
3.3418505e-24
2.9873625e-24
-2.8486527e-25
4.1887886e-22
8.921445e-25
-8.9652877e-26
1.3434942e-22
-1.529509e-28
-4.7677118e-24
3.0671356e-19
-1.298532e-26
3.6646079e-25
-3.2849001e-25
1.2120728e-28
-2.441668e-28
2.1580698e-24
-2.5904996e-25
-1.1930387e-29
6.8542474e-35
5.2717827e-26
-7.0197974e-29
5.6022007e-31
7.8115921e-27
-1.0315493e-25
2.0413581e-28
5.9677716e-25
1.4730946e-25
7.0155936e-27
4.7259947e-23
1.8598945e-26
-1.4642336e-27
7.9456003e-24
-7.2501037e-28
-7.9940915e-26
4.3304168e-25
-1.3011077e-26
5.5201433e-25
-4.3407874e-27
4.2861433e-30
8.5938282e-26
-3.798585e-28
-3.6970014e-28
-1.1693391e-31
5.0033163e-28
1.935437e-31
-1.5686039e-30
3.0602201e-28
8.9544657e-31
-5.7491261e-30
2.5889125e-27
7.9587969e-30
6.8010769e-29
1.5585597e-26
7.241338e-29
1.0315615e-27
5.3585561e-25
-2.895065e-29
-1.0705709e-27
8.2433983e-24
-6.3110907e-29
1.0202654e-24
-3.3519472e-27
-2.846484e-27
-1.0040571e-17
-5.4385672e-17
9.0877897e-16
7.1794259e-16
-1.5082234e-20
-1.8812407e-18
1.5760121e-16
-1.6291829e-21
-7.1027926e-21
9.0820566e-22
1.8110483e-21
-4.5675507e-24
3.9780514e-20
3.4292783e-24
-3.3281536e-23
2.8105774e-21
-1.5604828e-17
8.2038211e-15
1.1755322e-14
-3.3410313e-18
-1.9781426e-17
5.1931906e-17
-1.4201414e-18
1.4314228e-18
-3.908455e-21
1.8859084e-18
-5.3843775e-18
1.6232501e-16
0
-4.8172012e-21
-2.3014564e-21
2.1395366e-20
-1.0427123e-23
-4.8893049e-20
8.0602514e-19
1.4400146e-24
-1.682173e-23
2.5192946e-19
0
-4.5498719e-23
1.8472179e-21
-1.2387373e-16
2.515056e-15
3.1269574e-14
-6.512422e-18
-2.5764858e-17
1.8728108e-16
-1.614962e-18
2.0312116e-17
-1.9606294e-19
9.5927605e-21
-3.7322633e-20
3.2993396e-18
-2.1398895e-18
-2.3805654e-20
-5.6194921e-21
1.1989727e-19
-2.534111e-23
-4.1490822e-20
5.2528394e-18
-2.1961512e-24
-1.3335906e-20
3.5371689e-19
0
-3.5254385e-23
4.7616116e-21
3.761097e-18
3.0354973e-18
6.8383583e-15
-2.4297121e-18
-1.314534e-17
2.1827033e-16
-5.1270221e-20
1.9692697e-18
-4.1500158e-21
1.777701e-21
-8.4256176e-23
1.7610952e-19
0
-5.7585262e-21
-6.5920135e-22
2.3934994e-19
-1.898438e-20
-5.6984912e-21
8.9403561e-19
-3.1182367e-23
-2.1457405e-21
7.5345233e-19
1.6401087e-26
-1.9190245e-23
7.1891256e-21
0
2.0722082e-21
3.0335227e-18
-3.8686978e-20
-8.5445046e-20
4.8767625e-17
-9.0233615e-20
2.8225713e-22
-2.2583659e-25
1.2233149e-23
-4.0402122e-23
2.1509334e-21
0
-5.1716155e-22
-4.365505e-24
9.2002864e-21
-1.5356628e-21
-5.7365852e-23
6.8901863e-20
-7.940436e-24
-9.0805473e-24
6.380362e-20
4.0701376e-24
-4.4866525e-24
9.7926211e-22
3.4600616e-23
5.5811383e-24
2.2693146e-21
-3.1024271e-21
-5.1501764e-20
5.417471e-22
-2.4835072e-20
1.4051961e-18
-8.534412e-23
2.2068956e-25
-1.0328147e-25
5.3160824e-21
-1.3711177e-21
-2.8856584e-27
-4.622121e-27
7.0734467e-24
-5.9068862e-27
-4.374547e-27
3.011575e-25
-5.4075265e-24
-2.9953999e-25
2.6532971e-25
6.3727752e-24
4.7814841e-24
2.953652e-22
1.2509055e-22
1.8382406e-23
2.382388e-22
1.8298885e-21
-1.7616608e-24
9.9243412e-19
-4.9121298e-24
2.813692e-19
-4.6207675e-23
8.8044214e-28
-2.1975347e-26
1.9453863e-23
-3.2130653e-25
-1.2280466e-27
-1.1387227e-28
2.4622978e-25
-8.4271194e-26
-3.8159116e-29
1.9055218e-25
-3.5544829e-24
-2.9762344e-27
3.0233738e-23
4.0958713e-24
4.5742984e-24
2.1718913e-22
1.7588379e-24
1.3130813e-24
7.185646e-23
1.8403656e-27
-1.6214963e-25
4.1969736e-25
-4.4087636e-25
3.414611e-25
-4.0635997e-26
1.4268073e-28
1.2224445e-24
-1.361538e-26
-3.7289366e-26
-1.2418156e-29
6.7904212e-27
-1.0967962e-28
-7.5126979e-29
3.4393038e-27
-8.155238e-30
-1.4549545e-25
3.0541847e-25
-1.1444531e-30
1.6459525e-25
9.9332985e-24
2.6122595e-25
1.0910221e-25
4.8706236e-24
1.5439706e-25
3.1823168e-26
5.6880885e-24
-3.7467549e-27
1.0500014e-23
-6.797134e-26
-1.1345246e-25
-2.0438277e-17
3.9044681e-18
1.5750492e-15
-4.3272526e-16
-6.8878423e-24
-2.8701747e-18
1.688739e-16
1.2360141e-22
-3.9601179e-22
9.7043936e-22
3.8506618e-20
2.7558213e-22
9.1860777e-22
-2.7566423e-14
1.8361636e-14
9.0788753e-14
-9.5230476e-17
-9.0608838e-15
6.2723086e-15
-4.3327122e-17
-4.8319982e-20
4.6647484e-20
-1.2484009e-18
4.1704012e-16
1.2735741e-17
-4.5221902e-19
1.5541055e-19
1.9877196e-16
0
0
-1.221142e-19
8.9242433e-18
1.7284117e-18
-9.2825229e-19
5.2742195e-21
-2.9039751e-15
1.1778046e-16
2.7626669e-15
-2.2107814e-14
2.5319588e-14
1.1158126e-13
-1.9524757e-16
-1.0923997e-14
2.7585299e-14
-2.8893023e-18
-5.4428744e-18
2.8864306e-19
-1.5006718e-18
2.118786e-17
-1.0495689e-18
0
-7.3424854e-21
5.0282143e-18
0
0
-1.5785357e-20
6.8798555e-21
-2.403006e-17
-3.8077173e-19
9.8680042e-18
-6.2152817e-18
0
8.1672641e-16
-2.7794073e-16
1.6001847e-16
2.5474397e-14
-1.1569197e-16
-4.6466137e-18
7.7722301e-15
-4.7413821e-19
-3.0109372e-17
2.0310498e-17
-4.0337624e-20
3.7255917e-20
-2.6692632e-21
2.5639223e-21
-1.497158e-21
2.464932e-19
0
-2.9153991e-21
-4.4551338e-22
2.3394525e-19
-1.965874e-19
-3.1653696e-21
1.1136424e-18
-1.3003129e-20
2.5065003e-19
4.262446e-18
1.3386105e-20
3.4653997e-19
1.5965303e-16
-1.6403339e-18
-8.5946625e-25
4.0635776e-20
-2.3436173e-20
-1.7506872e-19
9.4322985e-17
-4.0223746e-19
3.9241229e-19
-3.5269149e-20
0
-5.7614186e-22
6.3777835e-20
0
-1.7658076e-24
-9.4678396e-25
6.8547605e-21
-8.5685793e-23
-6.0931519e-25
6.5822651e-20
-6.5532938e-23
1.0609798e-22
3.1432187e-19
6.743228e-23
7.2438265e-22
3.4666799e-19
0
-8.9819574e-26
2.3330085e-21
-1.2873192e-19
-3.7244512e-19
7.5536481e-19
-3.4680089e-19
2.2156043e-18
0
0
-7.3672639e-24
1.9349198e-20
0
-1.0199897e-26
-1.8258383e-25
7.6926258e-24
-2.2957714e-26
-3.6059376e-25
1.6042986e-24
-2.4323119e-25
3.5137608e-26
1.0702394e-22
2.1721304e-25
1.4176915e-24
1.0181107e-21
5.6210964e-23
-1.3034698e-26
1.7741229e-22
-3.6816925e-20
-4.6453159e-22
1.1211312e-18
-1.1564276e-23
1.7105279e-18
-3.7032458e-24
3.1829097e-26
-5.1429491e-24
1.6283262e-22
0
-8.7439455e-26
-1.0954132e-26
4.3463406e-24
-5.4237283e-26
-7.983237e-26
4.8410554e-24
-2.6431788e-26
6.2279613e-26
3.0414437e-23
3.679603e-26
5.1183808e-25
2.1823856e-22
1.6734327e-26
-4.5261492e-28
6.7347863e-23
-6.2714263e-27
-5.0166217e-22
3.3035325e-23
-7.2940851e-24
3.8141279e-25
-2.951813e-24
3.8236352e-26
9.6523162e-23
-2.0074453e-24
-5.6685511e-24
-1.2792865e-26
2.6942416e-25
-5.7078833e-27
-1.2718171e-25
1.2865292e-24
-4.3939612e-27
-1.6682109e-27
4.2476274e-24
1.4514776e-25
2.4289305e-27
1.0520382e-23
1.2153758e-26
4.4049204e-26
1.567853e-25
3.7305106e-25
-2.8381017e-25
6.6481408e-21
-1.093218e-23
5.5954243e-23
-1.5725843e-24
-2.5646801e-24
-1.625499e-16
0
2.5942434e-15
1.7875068e-15
5.8948292e-22
-3.2076806e-18
9.5308918e-18
7.9134193e-22
-4.6909033e-22
1.0342945e-21
6.4875527e-16
-3.1697078e-17
7.2473885e-17
-8.8214761e-15
1.3387697e-13
4.6114637e-14
-3.2448211e-20
-6.4336622e-15
6.2856518e-15
-3.4922146e-20
-7.1686713e-21
2.5755862e-20
-1.3483222e-18
3.8593635e-16
0
0
0
1.2268293e-17
-1.2646119e-16
1.2478701e-18
-3.5176128e-20
1.0080725e-16
1.0434192e-18
-5.7094839e-21
2.1475724e-19
4.592492e-15
1.1289561e-16
2.4797538e-15
-1.6708501e-14
2.1905109e-13
1.2436086e-13
-3.3033769e-18
-4.9374821e-15
1.6970934e-14
-3.0299837e-18
-5.566803e-20
3.4298149e-20
-1.3806137e-19
1.7951807e-17
0
1.4755115e-22
-9.4207052e-20
1.1179279e-20
5.1363679e-18
8.2965218e-24
-4.0687927e-20
2.5348747e-20
2.5433604e-20
-9.4526306e-19
1.0781491e-17
9.276116e-16
1.1949368e-19
1.8646113e-18
-5.2809116e-15
1.3889449e-13
1.8557814e-13
-5.9794153e-17
-8.6872018e-16
8.0569391e-15
-4.2616967e-21
-3.973107e-17
1.6846696e-19
-1.3856572e-20
3.5165649e-20
-1.4002687e-19
2.1955116e-21
-2.3603035e-20
7.4601739e-19
0
-2.2308161e-20
-1.5576463e-19
4.5307076e-19
3.1225812e-20
-3.4031485e-18
5.4777201e-18
4.5414429e-18
8.2448225e-20
5.7855351e-20
5.4653377e-15
4.271071e-14
1.8413931e-13
-6.8784919e-17
-2.8024975e-16
1.9339127e-15
-1.0553122e-18
-6.6292861e-19
8.215833e-17
-6.9701398e-19
4.9060805e-20
-2.8992793e-20
2.2907701e-21
-3.0155171e-21
2.4051314e-19
-4.5238562e-20
0
-5.4353486e-22
1.1203177e-18
0
-2.9612102e-19
1.6392301e-17
-2.1942694e-16
2.0471258e-17
2.0823603e-16
7.870204e-16
1.6540543e-14
7.7401283e-14
-1.0073998e-18
-8.9260043e-18
2.256716e-15
-2.8023663e-19
-6.1596541e-19
8.4390452e-21
-6.4282836e-19
2.4649751e-18
0
4.9968907e-22
-9.8706944e-23
3.7241742e-20
0
-2.4498525e-23
-4.9085573e-24
5.3692657e-24
-2.9843283e-19
-4.092198e-23
2.3307873e-21
-2.3363914e-18
6.8440096e-19
1.4436589e-17
9.1116208e-18
1.1900496e-16
1.6410091e-14
0
-3.91502e-24
1.8579505e-19
-1.3927203e-19
-2.4595541e-19
1.4292524e-18
-4.5672413e-23
2.2795587e-18
-2.3512394e-22
7.0284625e-24
-5.4062508e-22
1.5958265e-21
-2.4953373e-23
-1.4643747e-26
-1.6994951e-24
3.9819467e-23
-6.6033628e-23
-1.0468036e-26
3.0282879e-23
-2.4913581e-20
4.4661535e-22
7.0645112e-19
4.665841e-20
3.4184062e-19
1.1859499e-16
0
4.5317629e-24
4.6712774e-20
-3.6945869e-25
-2.1401769e-20
4.7378464e-19
-1.9636238e-23
5.6197823e-25
-2.0493667e-23
6.6753749e-24
2.0959724e-21
-1.0478009e-22
-6.1882833e-22
-1.2496528e-27
1.9897794e-23
-2.3305137e-24
-2.2582327e-25
2.3265724e-24
-6.2758363e-25
-1.0821178e-22
5.4357045e-22
1.816855e-25
1.9955321e-22
3.3999926e-19
1.5486842e-21
0
2.0207698e-22
1.2192623e-25
-5.8960217e-24
6.8196262e-20
-4.6048968e-22
6.6602796e-23
-1.8311812e-23
-1.938815e-23
-3.0718906e-17
-1.1018783e-17
3.1605391e-15
7.5640735e-17
-6.7500584e-18
-2.8702972e-17
4.3524645e-16
1.36719e-17
-2.7346891e-17
8.7597075e-18
7.7483922e-17
8.8483882e-17
1.015058e-16
-3.7391241e-15
7.3293097e-14
5.6356962e-14
-3.6922862e-15
-1.9076418e-15
1.973879e-15
-3.2253259e-16
-7.246796e-21
9.2980848e-15
-3.0422242e-18
1.1532735e-14
-1.9414699e-19
-1.6515445e-17
-1.5029022e-21
3.4095054e-20
1.7930565e-17
0
-2.7192957e-17
2.578907e-16
3.1472454e-16
-1.3879392e-16
4.4756059e-16
2.9243226e-15
4.5176448e-16
2.6059077e-15
-7.334506e-15
1.6657427e-13
1.1809335e-13
-1.0969239e-20
-9.9364925e-16
2.0607888e-15
-4.9970569e-21
-4.1562966e-20
3.3275268e-20
-2.1747512e-20
1.5180837e-17
-2.8382191e-19
-1.4624812e-18
-2.1914916e-19
1.33579e-20
1.7866649e-18
-3.4174851e-18
-3.8758509e-18
7.8605754e-17
2.8063461e-17
-1.4735704e-17
4.5284661e-16
4.8129535e-16
1.8634998e-19
8.1272689e-19
-4.6526222e-15
2.5658999e-13
1.7451767e-13
-3.3863969e-17
-1.1063528e-17
2.9026756e-15
-9.4399239e-21
-3.3846325e-17
9.0612021e-20
-2.2963692e-20
1.9024662e-19
-1.5814181e-19
-4.389495e-20
0
1.4601016e-18
1.7467569e-19
0
-4.284822e-19
1.9626303e-18
3.9515006e-21
-8.4669764e-18
9.9719317e-20
7.6663612e-19
1.5894259e-20
5.1263429e-20
-1.9351561e-15
2.9047145e-13
2.2306741e-13
-1.6743095e-17
-7.5074095e-19
6.2026154e-18
-8.1574177e-19
-3.3479367e-19
2.5258358e-17
-8.6230067e-19
8.9548383e-20
-5.9751928e-21
-9.6012697e-21
-8.0156181e-23
5.9973413e-22
2.5000378e-19
0
-2.9635981e-21
3.7948201e-19
0
-9.4775287e-19
1.718361e-17
2.724684e-15
2.9701739e-16
2.4673327e-16
-2.265935e-15
1.2186321e-13
3.1912997e-13
-3.2876826e-22
-1.8826253e-17
8.8841658e-18
-3.1243892e-19
-3.6431928e-21
3.546867e-21
-9.875432e-19
1.9483257e-18
0
-4.8757726e-25
-4.7606002e-20
1.8436603e-22
8.4655632e-20
-5.8174113e-21
-2.8135474e-23
2.9094142e-21
-1.2156982e-18
-1.6500611e-19
4.2950221e-19
3.1665726e-16
3.5139291e-16
1.4389532e-15
3.4357824e-15
3.6893873e-14
2.5682815e-13
-1.7361656e-18
-3.8323875e-17
8.1217221e-16
-3.1435537e-19
-1.2570609e-21
5.5727224e-21
-2.644507e-22
1.75211e-18
-5.108173e-22
-1.35363e-24
0
2.34224e-19
0
-3.6957947e-23
-4.2674181e-23
1.1437462e-22
0
-5.5272599e-19
3.3492426e-19
-8.022414e-16
3.0990752e-16
1.5526379e-15
2.1078618e-15
8.952204e-16
1.1321113e-13
-5.2291551e-19
1.3258067e-17
1.960827e-15
-3.4872772e-25
-5.3133243e-20
2.7532133e-21
-6.5925354e-24
1.5472885e-24
-2.5365434e-22
3.6471792e-25
2.2967491e-21
-2.5277224e-24
-2.5210692e-23
0
1.7778262e-21
-5.4610835e-22
-7.4531592e-18
2.8428768e-18
-1.3782079e-20
-4.6801222e-18
2.0363996e-16
4.912729e-19
8.7362245e-18
8.7877765e-16
3.3708795e-18
1.083587e-19
2.5412694e-17
0
-3.2346628e-22
1.3758561e-19
-2.7305678e-21
1.3420791e-23
-8.2860725e-23
-1.3978727e-22
-2.1354326e-17
-3.3841599e-17
9.8082361e-16
1.5852927e-16
-3.0382142e-17
-8.1314024e-17
4.465227e-16
-1.0775321e-19
-2.391854e-17
2.5452684e-17
-1.3196559e-14
-9.5868812e-19
1.3303793e-14
6.7073901e-15
-1.0693049e-14
8.4154908e-14
0
-2.2204991e-17
7.3391669e-16
1.0186788e-15
9.464675e-16
1.6107041e-14
-1.0037699e-14
8.0273815e-14
-1.0015916e-16
-3.2935515e-17
-3.6986056e-19
5.7241434e-20
0
-7.3512406e-17
-1.4709339e-16
3.4532546e-16
0
-1.361594e-16
8.6034172e-16
2.1938808e-17
-2.1522272e-20
2.5851144e-15
-1.6866341e-15
-3.7589808e-14
1.1796585e-13
0
-9.1854014e-19
1.3330519e-17
0
-6.885146e-18
1.0410457e-16
1.1012386e-15
2.8467907e-14
5.8753121e-17
-1.0401283e-18
-8.382103e-19
4.0520712e-18
5.9311041e-19
-5.8253423e-17
-2.5687452e-18
4.3013877e-16
0
-1.5765945e-16
1.028017e-15
2.2328136e-18
-2.3389197e-20
1.2841446e-19
-2.9009309e-15
-2.3024812e-14
4.7529483e-14
-1.0082565e-20
-2.0223164e-20
2.061349e-18
6.2346823e-21
-6.6299509e-18
9.5387899e-20
0
1.1014464e-15
0
0
-6.5660177e-20
1.9578902e-18
2.6063376e-19
-5.4421738e-19
-5.2285436e-20
8.5322037e-20
0
-2.4275306e-18
1.0156911e-17
7.5801241e-20
4.94225e-21
8.4178035e-19
-1.0764165e-17
1.0851728e-14
1.2640789e-13
-3.630841e-18
-1.0697037e-20
9.6844848e-20
1.7394695e-20
-2.7023411e-18
3.7273065e-18
-3.4235356e-19
6.8941027e-18
7.1739824e-20
-3.8453146e-22
-2.6922209e-21
3.491013e-21
3.4548977e-19
-7.169881e-20
-1.3624231e-19
6.2375914e-19
4.7207373e-19
-2.0078564e-21
3.7427989e-18
1.2194636e-14
8.6000052e-17
-1.2032549e-14
-1.0184423e-17
2.3898207e-13
1.9956223e-13
-3.5513561e-19
-5.4023998e-19
8.0101247e-20
-4.2886033e-19
-7.5556134e-20
2.3122769e-18
-7.4734087e-19
4.6654136e-18
5.4611975e-20
-1.5976736e-20
-8.4168733e-20
5.672553e-20
2.6320405e-20
-1.3856666e-22
-7.1197779e-23
8.9302229e-19
1.2157308e-22
-3.3293838e-20
4.9150195e-19
9.9920641e-16
1.0642351e-17
5.1431971e-16
-9.3993573e-16
4.2562412e-13
1.6329283e-13
-1.8663974e-19
-1.3142783e-16
3.3116544e-18
-2.5764169e-19
-1.7869748e-23
1.0648915e-21
-2.7227503e-21
1.7315549e-18
-5.411521e-23
-1.5313887e-23
-6.2615629e-19
5.2986861e-19
9.7934257e-20
-4.2609274e-21
-3.9830998e-22
5.1417016e-21
0
-3.5137036e-19
5.3493835e-19
3.2404765e-15
2.4166562e-16
5.0517638e-16
-6.3459868e-15
1.9640882e-13
2.8255269e-13
-3.3356192e-21
-3.358187e-17
8.8290504e-16
-1.8609262e-24
-6.0879585e-22
2.6780386e-23
-1.1346187e-21
1.2357967e-23
-1.5935941e-21
-1.6998294e-21
1.4893607e-18
9.9154871e-20
-7.6317976e-19
0
1.0101521e-21
-3.6338243e-22
0
2.2344589e-18
-1.7096973e-19
4.2116927e-17
3.4396312e-16
2.2295843e-16
9.1057838e-16
5.0910215e-14
6.4750468e-16
-1.4530115e-19
3.2112084e-16
-5.0899221e-19
-3.2129067e-22
8.8780162e-22
-8.8612507e-21
3.584787e-21
-2.2469517e-22
-8.9019391e-22
-7.7227984e-18
-9.1450713e-18
1.4546232e-15
9.4475363e-16
1.284191e-17
-2.8961637e-17
3.4511161e-17
8.7940261e-17
-3.5270793e-19
6.7369769e-19
8.9968193e-15
-1.099048e-13
7.7281467e-13
-1.1947915e-16
-2.8013097e-17
1.421941e-13
2.9763016e-16
-9.3188009e-18
5.8327511e-18
1.3981238e-14
-1.0807581e-16
1.2248603e-14
7.1301524e-14
5.1290697e-14
-1.1409792e-14
-8.0532318e-18
-6.5582456e-19
2.7368065e-19
4.1576944e-21
1.8319138e-17
-2.6034691e-16
2.3855519e-16
1.0938638e-15
-1.5943425e-16
3.8143842e-18
7.7730622e-14
2.6394957e-13
0
0
9.7728009e-16
1.7113256e-13
5.9106575e-18
-5.701428e-16
5.8610656e-17
0
-6.6030245e-19
1.616067e-18
3.884174e-14
1.2646503e-13
1.0860702e-14
-6.8762829e-18
-9.3380076e-19
5.3206153e-18
3.8961742e-19
-1.2903008e-17
-2.0719978e-18
4.3456433e-16
-9.3952141e-18
-3.1452328e-17
4.4748443e-16
5.0007212e-16
8.849974e-16
2.6254791e-13
9.2129472e-15
1.0315241e-14
8.623749e-14
0
-1.3138656e-16
1.6285851e-15
0
-2.1071195e-18
1.6974373e-18
2.7027898e-15
8.7194668e-14
4.5919101e-16
0
-6.481772e-20
1.458156e-18
1.4212352e-19
-4.1128137e-19
-1.5433356e-18
1.0375465e-19
0
-2.5336864e-18
1.464602e-17
1.2329479e-13
2.5958838e-14
-1.8663498e-13
3.1831957e-16
8.486016e-14
1.2032748e-13
-1.8211719e-19
-1.9263033e-17
2.0799452e-16
2.6504251e-19
-3.540854e-18