/*--------------------------------*- C++ -*----------------------------------*\
  =========                 |
  \\      /  F ield         | OpenFOAM: The Open Source CFD Toolbox
   \\    /   O peration     | Website:  https://openfoam.org
    \\  /    A nd           | Version:  13
     \\/     M anipulation  |
\*---------------------------------------------------------------------------*/
FoamFile
{
    format      ascii;
    class       volScalarField;
    location    "0.03";
    object      p_rgh;
}
// * * * * * * * * * * * * * * * * * * * * * * * * * * * * * * * * * * * * * //

dimensions      [1 -1 -2 0 0 0 0];

internalField   nonuniform List<scalar> 
51200
(
1.0059469
0.99197821
0.98373893
0.98054828
0.98054763
0.98373687
0.99197526
1.0059433
0.99542088
0.9821073
0.97456475
0.97172653
0.97172592
0.97456278
0.98210447
0.99541737
0.98603358
0.97356902
0.96669904
0.96415385
0.96415327
0.96669716
0.97356629
0.98603013
0.97837505
0.96680236
0.96059413
0.95829927
0.95829872
0.96059234
0.96679972
0.97837165
0.97188113
0.96118339
0.95562304
0.95354866
0.95354814
0.95562132
0.96118083
0.97187777
0.96621579
0.95636209
0.95142407
0.94954643
0.94954592
0.95142241
0.95635958
0.96621249
0.9612671
0.95218866
0.94784306
0.94614472
0.94614423
0.94784146
0.9521862
0.96126386
0.95700316
0.948485
0.94473164
0.94320225
0.94320178
0.9447301
0.94848259
0.95699998
0.91567657
0.91528839
0.91508914
0.91467949
0.91467879
0.91508673
0.91528504
0.91567259
0.91679535
0.91652327
0.91628997
0.91587137
0.91587071
0.91628765
0.91652002
0.91679144
0.91806413
0.91795181
0.91768463
0.91725331
0.91725269
0.91768241
0.91794865
0.91806029
0.91936452
0.91938196
0.91907703
0.91863446
0.91863387
0.91907488
0.91937888
0.91936075
0.92067279
0.92075442
0.9204105
0.91996222
0.91996165
0.92040842
0.92075141
0.92066908
0.92193136
0.92200991
0.92163121
0.9211849
0.92118435
0.9216292
0.92200697
0.9219277
0.92308094
0.92310507
0.92269969
0.92226308
0.92226254
0.92269775
0.92310219
0.92307732
0.92400843
0.92397167
0.92354845
0.923125
0.92312448
0.92354658
0.92396885
0.92400485
0.91960721
0.91816357
0.91732123
0.91692658
0.91692586
0.91731833
0.91815967
0.91960255
0.9198832
0.91845555
0.91768015
0.91730078
0.91730011
0.91767736
0.91845175
0.91987863
0.92012035
0.91873442
0.91803046
0.91766474
0.91766411
0.91802778
0.91873074
0.92011588
0.92019043
0.91886628
0.91823961
0.91789249
0.9178919
0.91823704
0.91886271
0.92018606
0.92014014
0.91890124
0.91835278
0.91802843
0.91802786
0.91835031
0.91889778
0.92013586
0.9200338
0.9188935
0.91842005
0.91812204
0.91812149
0.91841767
0.91889013
0.92002961
0.91987546
0.9188434
0.91844704
0.9181812
0.91818066
0.91844476
0.91884011
0.91987134
0.91950786
0.91867584
0.91837718
0.91815367
0.91815313
0.91837499
0.91867262
0.91950379
0.90874005
0.90851885
0.90857642
0.90867501
0.90867438
0.90857252
0.9085138
0.90873396
0.9089436
0.9087718
0.90883664
0.90891335
0.90891279
0.90883288
0.9087669
0.90893762
0.90914567
0.90901829
0.90909491
0.90915302
0.90915252
0.9090913
0.90901355
0.90913983
0.90933152
0.90924079
0.9093325
0.90937757
0.90937711
0.90932905
0.9092362
0.90932582
0.909507
0.90945113
0.90956013
0.9095966
0.90959617
0.90955683
0.90944669
0.90950145
0.90968318
0.90965996
0.90978638
0.9098177
0.90981728
0.90978323
0.90965566
0.90967777
0.90985735
0.9098725
0.91001578
0.91004612
0.91004569
0.91001279
0.90986834
0.90985208
0.90996438
0.91010177
0.91025967
0.9102958
0.91029535
0.91025683
0.91009772
0.90995922
0.90323919
0.90305737
0.90317669
0.90337976
0.90337971
0.90317108
0.90305061
0.90323089
0.90334193
0.90319793
0.90332861
0.90350881
0.90350886
0.90332322
0.90319135
0.9033338
0.90344913
0.9033405
0.90348457
0.90364488
0.90364501
0.9034794
0.90333414
0.90344119
0.90353868
0.90346074
0.90362173
0.90376832
0.90376849
0.90361681
0.90345459
0.90353096
0.90361404
0.90356514
0.90374646
0.90388438
0.90388456
0.90374179
0.90355921
0.90360653
0.90368216
0.90366054
0.90386493
0.90399819
0.90399835
0.90386052
0.90365483
0.90367489
0.90373878
0.9037532
0.90398337
0.90411623
0.90411633
0.90397924
0.9037477
0.90373173
0.90375292
0.90387904
0.90413403
0.90427205
0.90427204
0.90413019
0.90387371
0.90374606
0.89792415
0.89784076
0.89802494
0.89826622
0.89826799
0.89801614
0.89783125
0.8979123
0.89798894
0.89793946
0.89813106
0.89834944
0.89835135
0.89812261
0.89793017
0.89797733
0.89805722
0.89803907
0.8982393
0.89843762
0.89843963
0.89823122
0.89803004
0.89804589
0.8981195
0.89812694
0.89833748
0.89852092
0.89852296
0.89832981
0.8981182
0.89810847
0.89817752
0.89820669
0.89842949
0.89860234
0.89860434
0.89842228
0.89819826
0.89816682
0.89823459
0.89828163
0.89851858
0.89868431
0.89868619
0.89851185
0.89827354
0.89822424
0.89828775
0.89835591
0.89860869
0.89877096
0.89877266
0.89860249
0.89834816
0.89827776
0.89831841
0.89845623
0.89872355
0.89888717
0.89888854
0.89871794
0.89844879
0.89830875
0.89320246
0.89313869
0.89330364
0.89351851
0.89352556
0.89328865
0.89312499
0.89318483
0.89324221
0.89320412
0.89337628
0.8935725
0.89357979
0.89336186
0.8931906
0.89322491
0.89328462
0.89327054
0.8934504
0.8936301
0.89363753
0.89343663
0.89325727
0.89326771
0.89332344
0.89332939
0.89351788
0.89368508
0.89369247
0.89350486
0.89331648
0.89330696
0.89335989
0.89338331
0.89358165
0.89373975
0.89374693
0.89356952
0.89337084
0.8933439
0.8933965
0.89343499
0.89364438
0.89379609
0.8938029
0.89363321
0.89342304
0.89338104
0.89343208
0.89348795
0.89370909
0.89385725
0.89386352
0.89369899
0.89347656
0.8934172
0.89345466
0.89355991
0.89379105
0.89393929
0.89394473
0.89378221
0.89354907
0.89344038
0.88875808
0.88870866
0.88884767
0.88901983
0.88903983
0.88882041
0.88868859
0.88873104
0.88878331
0.88875271
0.8888984
0.88905648
0.88907689
0.88887212
0.88873252
0.88875663
0.88881041
0.88879757
0.88895012
0.8890956
0.88911617
0.88892499
0.88877748
0.8887842
0.88883577
0.88883768
0.88899727
0.88913306
0.88915341
0.8889736
0.88881793
0.88881013
0.88886006
0.88887475
0.88904186
0.88917047
0.88919024
0.88901993
0.88885557
0.88883509
0.8888849
0.88891066
0.88908578
0.88920931
0.88922816
0.88906582
0.88889227
0.88886071
0.8889096
0.88894797
0.88913106
0.88925172
0.8892693
0.88911333
0.88893052
0.88888633
0.88892522
0.88899778
0.88918681
0.88930745
0.88932314
0.88917176
0.88898128
0.88890304
0.88449485
0.88445159
0.88457205
0.88470079
0.88475488
0.88451749
0.88441958
0.88444694
0.88451094
0.88448118
0.88460778
0.88472643
0.88478131
0.88455507
0.88444823
0.88446349
0.88452875
0.88451128
0.88464409
0.88475365
0.88480874
0.88459367
0.88447811
0.88448144
0.8845453
0.88453825
0.88467713
0.88477968
0.88483413
0.8846299
0.88450557
0.88449884
0.88456127
0.88456331
0.88470831
0.88480571
0.8848587
0.88466504
0.88453168
0.88451607
0.88457784
0.88458792
0.88473904
0.88483292
0.8848837
0.88470027
0.88455783
0.88453421
0.88459471
0.88461408
0.88477068
0.88486286
0.88491056
0.88473694
0.8845859
0.8845531
0.88460513
0.88464902
0.88480853
0.88490157
0.88494469
0.88478077
0.88462272
0.88456612
0.88034597
0.8803065
0.88042971
0.88052853
0.8806508
0.88032433
0.88025187
0.88025815
0.88035731
0.8803267
0.88045543
0.8805465
0.8806711
0.880352
0.880273
0.88026916
0.88036941
0.88034697
0.88048118
0.88056572
0.88069064
0.88038231
0.88029289
0.88028107
0.88038103
0.88036498
0.88050471
0.88058402
0.88070834
0.88041258
0.88031125
0.88029322
0.88039244
0.8803818
0.88052707
0.88060241
0.88072514
0.88044308
0.8803297
0.88030587
0.88040394
0.88039871
0.8805493
0.88062192
0.8807417
0.88047447
0.88034945
0.88031986
0.88041566
0.88041755
0.8805723
0.88064378
0.88075873
0.88050766
0.88037198
0.88033548
0.88042249
0.88044339
0.88059899
0.88067215
0.88077899
0.88054642
0.88040144
0.88034807
0.87633543
0.87624154
0.87638779
0.87648191
0.87679021
0.87609933
0.87656329
0.8760907
0.87635446
0.87625192
0.8764062
0.87649439
0.87680659
0.87613061
0.87616875
0.87610165
0.87634716
0.87626171
0.87642534
0.87650727
0.87682443
0.87618514
0.87616647
0.87611067
0.87634359
0.87627097
0.87644382
0.87651988
0.87684089
0.87624093
0.87617848
0.8761191
0.87634232
0.87628086
0.8764621
0.87653321
0.87685449
0.87629244
0.87619443
0.87613006
0.87634285
0.87629231
0.87648125
0.8765479
0.87686544
0.87634072
0.87621382
0.87614384
0.87634512
0.876307
0.87650179
0.87656491
0.87687361
0.87638642
0.87623798
0.87616143
0.87634651
0.87632886
0.87652429
0.87658817
0.87687781
0.87643389
0.8762685
0.87618184
0.87251594
0.87226322
0.87238492
0.87262306
0.87282276
0.87193008
0.87212588
0.87193362
0.87254672
0.87225656
0.87239712
0.87262381
0.87294943
0.87215687
0.87212968
0.87194011
0.87250173
0.87224654
0.87241224
0.8726269
0.87306163
0.8722509
0.872051
0.87193146
0.87247101
0.87224262
0.87243186
0.87262817
0.87318192
0.87228079
0.87206226
0.87194117
0.87244399
0.87224295
0.87245544
0.87263348
0.87327197
0.87231549
0.87208028
0.87195105
0.87241907
0.87224803
0.87248238
0.8726421
0.8733254
0.87236121
0.87210743
0.87196458
0.87240011
0.87225892
0.87251205
0.87265369
0.8733498
0.87241413
0.87214377
0.87198441
0.87239464
0.87227849
0.87254425
0.87267011
0.87334786
0.87247449
0.87218918
0.87201182
0.87083617
0.86863578
0.86828021
0.86881045
0.86960682
0.87898374
0.86777433
0.86744099
0.86922554
0.86826179
0.86827483
0.86884536
0.87035308
0.8719738
0.86766913
0.86753265
0.86893319
0.86821181
0.86829046
0.86885598
0.87095189
0.86943559
0.86750086
0.86753151
0.86875798
0.86818741
0.86832267
0.86889193
0.87116989
0.86928497
0.86754679
0.86755192
0.86862018
0.86817447
0.86836938
0.86892743
0.87125706
0.86922097
0.86768763
0.86758228
0.86850991
0.86817246
0.86842582
0.86895532
0.87116208
0.86917292
0.86782339
0.86761906
0.86842994
0.86818348
0.86848852
0.86897816
0.87103958
0.86913475
0.86796112
0.86766577
0.86839329
0.868207
0.86855432
0.86900011
0.87089382
0.86910133
0.86810147
0.86773293
0.86573823
0.86442723
0.8631753
0.86699686
0.93761853
0.86886125
0.86209161
0.86485508
0.86443377
0.8641242
0.8633263
0.8678415
0.87093127
0.87530337
0.86221526
0.86341957
0.86448673
0.8640618
0.8635146
0.86573315
0.87432999
0.86173218
0.86265942
0.86334817
0.86426242
0.86402085
0.86370231
0.86542822
0.87453963
0.86209578
0.86276214
0.86328429
0.86409037
0.86399859
0.86389504
0.86546873
0.87347039
0.86262039
0.86290939
0.86322758
0.86397034
0.86399578
0.86408701
0.86551431
0.87267061
0.86312878
0.86309541
0.86319493
0.86390508
0.86401593
0.86427314
0.86555963
0.87195098
0.8636347
0.86330199
0.86319697
0.86391549
0.86406039
0.86443958
0.86559716
0.87109763
0.86421685
0.86352241
0.86325366
0.85850791
0.85976997
0.85656514
0.86203515
0.88333855
0.86194535
0.85630103
0.85886551
0.85937565
0.8598615
0.85659091
0.86263698
0.88275156
0.86235457
0.85625633
0.85871293
0.85799356
0.85969762
0.85669094
0.86214731
0.88162483
0.85850263
0.85651273
0.85857465
0.85803712
0.85958785
0.85698444
0.86214208
0.86771637
0.85964714
0.85675462
0.85848418
0.85812365
0.8594965
0.85744859
0.8621453
0.86500855
0.85914871
0.85704333
0.85840997
0.85824128
0.8594385
0.85794125
0.86212121
0.86878408
0.85896904
0.85740576
0.85835653
0.85839137
0.85942103
0.85843506
0.86212671
0.86779154
0.8594185
0.8577881
0.85834238
0.85860599
0.85945801
0.85893032
0.86210353
0.86687805
0.85994826
0.85820911
0.85840523
0.8635861
0.85619135
0.85023535
0.85905993
0.88626525
0.85169777
0.85573021
0.85588756
0.85397811
0.8552008
0.85011955
0.8594071
0.88656078
0.85006327
0.84970621
0.85354714
0.85211982
0.85486339
0.84977244
0.85960623
0.88643597
0.85126546
0.8496267
0.85348628
0.85227098
0.8547077
0.85012403
0.86015081
0.88548947
0.85337494
0.84975966
0.85337143
0.85249959
0.85458231
0.85063994
0.86041119
0.88520701
0.85469031
0.85010314
0.85328191
0.85276813
0.85449851
0.85128225
0.86011199
0.87312318
0.85496712
0.85055363
0.85321604
0.85306228
0.85446581
0.85201448
0.8596585
0.86367838
0.85477162
0.85106922
0.85317087
0.85339112
0.85449311
0.85283865
0.8590186
0.86202717
0.85490538
0.85172986
0.85321236
0.84829639
0.85188613
0.84252732
0.8652931
0.87821223
0.84611857
0.87048948
0.93080716
0.84433248
0.85074998
0.84253711
0.86647129
0.86815951
0.84421437
0.84174068
0.85217581
0.84472753
0.85048629
0.84245595
0.86652234
0.87925224
0.84537477
0.84171516
0.850172
0.84519758
0.85030833
0.84247773
0.86896925
0.8778283
0.84690769
0.84110614
0.84987696
0.84571087
0.85016752
0.84251174
0.87285363
0.89926592
0.84687757
0.84036147
0.84932292
0.84623991
0.850012
0.84284109
0.86941154
0.90440986
0.84758823
0.84002138
0.848717
0.8467606
0.84986444
0.84428054
0.86693846
0.87575086
0.8497151
0.84088391
0.84817424
0.84727239
0.8497817
0.84609492
0.86457319
0.86100437
0.850352
0.84232578
0.84780037
0.83978271
0.84473725
0.83390179
0.86904329
0.84962542
0.84025586
0.84612413
0.85623154
0.83861209
0.84437566
0.8333572
0.94297714
0.82684297
0.84102305
0.83875552
0.84493836
0.83882471
0.84399997
0.83626235
0.93960276
0.83079225
0.8417248
0.83495943
0.8455862
0.83916522
0.84337674
0.83723692
0.87393051
0.83708628
0.84286679
0.8351432
0.84426722
0.83960037
0.84280372
0.83786472
0.91895471
0.83680106
0.84334146
0.83516399
0.84374489
0.8401233
0.84268701
0.83916648
0.83485518
0.84754076
0.84334836
0.83522264
0.84318275
0.84066032
0.84266725
0.83964526
0.847392
0.84197969
0.84375814
0.83579746
0.84264092
0.84110787
0.84280912
0.84150032
0.84963243
0.84421049
0.84377369
0.83676901
0.84209639
0.83004005
0.82727902
0.78529109
0.91661071
0.82258144
0.83368294
0.8310161
0.84959213
0.83199208
0.82647973
0.79549864
1.1327736
0.81682356
0.83414232
0.83485412
0.85013017
0.8291964
0.82192965
0.79119496
1.2021944
0.8979486
0.83628471
0.82860823
0.84405374
0.82766251
0.82229247
0.80949449
1.1800143
0.86147371
0.84025071
0.82668554
0.83639659
0.82784072
0.83150235
0.86205464
1.7886108
0.85807336
0.84311657
0.82745615
0.83480903
0.82885309
0.83116068
0.82468233
1.5441823
0.81936818
0.84161793
0.82795188
0.83405991
0.82992182
0.82999665
0.84418305
1.3809631
0.84040025
0.84002338
0.82898319
0.83353592
0.83098392
0.83230922
0.85621773
0.93009028
0.84842259
0.84012225
0.83021247
0.83307082
0.82805081
0.82625336
0.8010386
1.2618129
1.3043282
0.8104967
0.8299087
0.82017458
0.83003105
0.8225208
0.8184938
1.2477421
1.2965136
0.73557389
0.81759939
0.83540423
0.82648343
0.82183977
0.81925322
1.264664
1.2640859
0.83247873
0.81759947
0.83345261
0.82246779
0.82192804
0.8275836
1.2603765
1.2623323
0.82982958
0.81824613
0.81672069
0.82023947
0.82207508
0.83245507
1.2596367
1.2568224
0.83505382
0.81162159
0.81896211
0.81977747
0.82197368
0.82417102
1.2721097
1.2845406
0.826954
0.81208462
0.81860296
0.82063852
0.82394674
0.85892766
1.2756499
1.2622487
0.84859592
0.8143274
0.8186872
0.82210621
0.82866332
0.87111577
1.1801691
1.0739882
0.85764868
0.81827291
0.81899865
0.80597699
0.80764579
0.80553543
1.2781099
0.9382964
0.79192984
0.80727852
0.83628109
0.8063744
0.80431696
0.82202836
1.2762848
0.97591407
0.79835236
0.8019363
0.8204055
0.80725487
0.80528927
0.82648192
1.2788148
0.91748577
0.80171105
0.80016457
0.88353202
0.80452373
0.80589855
0.83722935
1.2811104
0.94693395
0.80735673
0.79797397
0.79717221
0.80409496
0.8067434
0.83340333
1.2843086
0.90167124
0.80140183
0.79892598
0.79758911
0.80660758
0.80804727
0.82744714
1.2895287
0.87594874
0.79902956
0.80028556
0.79806396
0.80856477
0.80987348
0.85509606
1.2981312
0.86233735
0.80568519
0.80126981
0.79898899
0.81030569
0.81605872
0.86906596
1.2722175
0.83917504
0.81256837
0.80239413
0.80016033
0.79930043
0.79179171
0.78816762
0.93941809
0.76170646
0.80494599
0.78689891
0.79262251
0.79900663
0.78036178
0.79323365
0.89495747
0.7629887
0.80248342
0.78666294
0.79050979
0.79820686
0.78139814
0.79451485
0.96988324
0.76248864
0.79375515
0.78638864
0.78966634
0.79695557
0.78225222
0.80444036
0.98670424
0.77069415
0.8131864
0.78601206
0.79035367
0.79633196
0.78346985
0.82720118
0.93427926
0.7802466
0.79910406
0.78729952
0.78903216
0.79627801
0.7857103
0.80858773
0.93419318
0.78107476
0.80573402
0.79073999
0.78985964
0.79665885
0.78735896
0.81164715
0.93955935
0.78562184
0.81322311
0.79291656
0.79076762
0.79698964
0.78975724
0.81968507
0.82704085
0.78951023
0.80879531
0.79507998
0.79194615
0.78998136
0.78247382
0.83980138
0.81767645
0.85280725
0.76597381
0.77164369
0.78175519
0.7925977
0.78441955
0.84289924
0.80035527
1.0618125
0.76865243
0.76937139
0.7810821
0.7941197
0.78626552
0.84411895
0.834618
0.85731852
0.77693986
0.76937445
0.7803594
0.79487531
0.78747674
0.8279595
0.89162327
0.85303302
0.79040223
0.77151032
0.77997366
0.79477697
0.7857126
0.85084275
0.8462686
0.86945629
0.79277684
0.77348066
0.77988217
0.79385901
0.78538316
0.84352872
0.85762369
0.80432924
0.80286659
0.77514393
0.77995912
0.79357636
0.79008548
0.83668376
0.80183844
0.83479774
0.79614035
0.77824261
0.78029362
0.79387956
0.79278459
0.83387154
0.80878363
0.79454474
0.79206773
0.78033455
0.78098379
0.86460851
0.76731209
0.8554755
0.8409093
0.31602996
0.75186472
0.71688655
0.76260075
0.75307331
0.76680399
0.7890778
0.83772533
0.30780379
0.74163702
0.71420721
0.75990629
0.80738939
0.76966947
0.77496811
0.80064732
0.34239724
0.73259993
0.71837381
0.75775743
0.80616577
0.76857796
0.75414816
0.86126525
0.76628204
0.75286798
0.71566307
0.75617456
0.79437308
0.76600559
0.75829779
0.83146415
0.61016906
0.74133177
0.71958347
0.75477212
0.78662571
0.76744791
0.81374097
0.83238532
0.96993875
0.77216034
0.72636385
0.75393311
0.78104428
0.77133782
0.81923196
0.81425224
0.94814025
0.75213989
0.73604211
0.75393797
0.77871102
0.7748812
0.79335424
0.82317422
0.93629453
0.75686565
0.74460153
0.75507558
0.81450187
0.74858494
0.94854327
0.84653264
0.89642258
0.88818737
0.71693562
0.79081094
0.80373975
0.73130596
0.93688299
0.853929
0.91994401
0.80607127
0.71872088
0.7464812
0.89444738
0.7407297
0.9132022
0.84681307
0.81915019
0.78928922
0.71794975
0.74365242
0.74582003
0.75851513
0.92751491
0.83633113
0.8023979
0.81020699
0.72118916
0.74015049
0.75835712
0.77882218
0.83985317
0.83240532
0.81104097
0.79959233
0.72519184
0.73962191
0.82339183
0.7679474
0.87076608
0.83975115
0.8164435
0.78905908
0.73142493
0.73928929
0.78997948
0.77292542
0.68873691
0.83390897
0.7821752
0.78928059
0.73729298
0.73949627
0.77230192
0.76381549
0.71111021
0.83926189
0.83761405
0.79067795
0.74351951
0.74029823
0.73793646
0.6785897
0.53697622
1.3137075
2.2007784
0.48525791
0.55308616
0.78757302
0.72624094
0.70340034
0.55186017
1.2162948
1.1636314
0.58208015
0.52924765
0.65287838
0.70580929
0.60685001
0.58278569
1.1888449
6.0971855
0.62516307
0.51169493
0.67744955
0.67366401
0.62463403
0.59086088
1.2445833
2.2807533
0.75743812
0.54005159
0.67182342
0.62913778
0.63506919
0.63282087
1.0071628
1.4309017
0.69477727
0.56975238
0.66602181
0.63325979
0.65351228
0.66440282
0.85105355
1.221514
0.59411632
0.5967147
0.66354097
0.664762
0.67309637
0.68746526
0.84466512
1.0803465
0.59885708
0.61675527
0.66341397
0.664593
0.68255378
0.71841235
0.88935314
1.1714237
0.57414485
0.63498947
0.66578043
0.78782766
0.67725712
0.86500843
2.9041619
3.8334441
0.81389094
0.72113972
0.78241982
0.8323482
0.65942245
0.74228577
2.4518383
3.8241277
0.88094758
0.63636258
0.61705457
0.79659748
0.52625601
0.71644416
2.4092068
4.8281264
1.048595
0.65115746
0.64241993
0.63910294
0.42992401
0.68455042
2.5180141
4.9331349
1.3004468
0.66070132
0.63452002
0.59173542
0.45880964
0.6468158
2.239443
5.3696991
1.2598596
0.65858321
0.62830797
0.55581691
0.48829476
0.61460916
1.8257869
4.7145946
1.2872679
0.666076
0.62649829
0.55537562
0.50102194
0.59130201
1.6578614
5.036847
0.79583704
0.67307867
0.6293434
0.55675459
0.51450951
0.59484804
1.6389075
2.7027414
0.56403926
0.65909549
0.63146627
0.1849795
0.35354872
-3.1635708
63.405654
66.376129
3.7543763
0.30110081
0.60781915
0.16304915
0.19769009
-2.7167317
68.244726
60.224203
5.4371066
0.15684358
0.59142717
0.15441369
0.079966849
-1.7986149
69.881077
60.918729
3.3739441
0.3309132
0.54840767
0.13926821
0.012224133
-0.75546008
74.562148
55.0267
0.13085969
0.37326049
0.50809349
0.1269217
-0.019809281
0.24364061
73.445434
53.355436
2.2086405
0.37273894
0.46573908
0.12056498
0.021243961
1.3558878
72.279136
33.310396
3.2603064
0.47354277
0.44315764
0.11525455
0.065013568
2.1765756
61.139088
25.409094
3.1807372
0.58246961
0.45259665
0.15501876
0.14209138
2.74068
55.296994
19.831758
3.0233555
0.69862696
0.49183627
0.56781781
0.13406212
8.6850586
78.009288
74.201979
9.0132778
0.15178277
0.71302921
0.51348127
-0.16108205
11.379661
77.492628
73.18585
12.172106
-0.20876889
0.65358765
0.43838727
0.25949821
11.917591
77.196357
71.884072
9.6719275
0.25559695
0.54253685
0.4042235
0.59435131
13.200038
76.275516
69.372799
7.0879826
0.59431265
0.44366634
0.384367
0.93858853
11.581464
75.124766
67.147353
2.1599386
0.65509805
0.29404819
0.37845924
1.1876482
8.0301187
74.900556
66.079365
2.9147116
0.51458282
0.21013488
0.38946908
1.259417
5.1500448
75.780486
57.939809
6.6351354
0.53549985
0.17586512
0.41823343
1.2628781
4.2285608
73.531864
38.165047
7.1506955
0.75689875
0.23012352
0.73578225
0.22440209
0.3772557
18.864403
65.103918
-0.5098202
0.30452884
0.81086935
0.61651509
0.14603227
0.24483488
20.715986
63.508363
1.3520921
-0.25767166
0.72796771
0.58214469
0.15181675
0.4589921
17.429605
68.534605
1.2489043
-0.15550983
0.6466362
0.52869351
0.05467973
0.59910483
19.398256
61.849284
3.0636743
-0.087998973
0.53370821
0.47206349
0.10511192
0.61556493
16.433424
59.437473
4.9669197
-0.0029385648
0.39274593
0.42118349
0.150917
0.80998978
18.803395
64.696588
7.8447854
0.11186063
0.26861573
0.37731251
0.15704048
1.1172498
14.153316
44.81062
9.110839
0.28500605
0.21047645
0.35260486
0.24145493
1.3895468
17.500656
27.375844
8.4866335
0.55372255
0.23101882
0.69739124
0.5232578
0.38696355
0.95673002
5.5713623
0.22919172
0.24840995
0.73344323
0.67443486
0.51190251
0.37202601
0.92448678
5.6752404
0.063575596
0.28324799
0.77120786
0.68136689
0.4898722
0.3751775
0.91487242
4.0050056
-0.0075639567
0.38401364
0.75338912
0.65667949
0.46148503
0.36666253
0.92083039
5.890993
0.082703747
0.15115179
0.66972559
0.63073775
0.42716635
0.35275956
1.0531484
3.4914852
0.28317362
0.16085332
0.62920704
0.60654178
0.40066914
0.35178802
1.4219167
3.3504553
0.54071096
0.11447195
0.58809273
0.57194599
0.37826814
0.3630822
0.93989575
2.5453446
0.34592942
0.10804686
0.53451924
0.5414023
0.36249118
0.37057302
1.0365332
3.7802409
-0.069397415
0.11557959
0.607562
0.41653255
0.48280451
0.4608376
0.51356221
0.42688509
0.32910465
0.37929305
0.51397971
0.41346604
0.50637395
0.49938984
0.50315397
0.41314806
0.33412214
0.36830873
0.3833415
0.40568091
0.49050542
0.48138977
0.50263157
0.40507814
0.34323212
0.36114342
0.39836819
1.4560699
0.45637318
0.47287007
0.49131344
0.39885944
0.35361322
0.34006948
0.39317313
0.48570556
0.85602618
0.42861274
0.47036465
0.40856308
0.44451225
0.74165197
0.40761786
0.57488141
0.64285198
0.44412816
0.45098666
0.42081614
0.3594031
0.30565243
0.41146421
0.58525063
0.51888083
0.45596778
0.4479619
0.41621375
0.36392593
0.30607785
0.4743679
0.5591329
0.50487747
0.44847844
0.45244543
0.44056449
0.36181796
0.31139084
0.36612246
0.79473803
0.65382049
0.45798126
0.41938255
0.52451177
0.39740608
0.44636476
0.43903251
0.77611305
0.63935873
0.43879818
0.42272042
0.51992967
0.39859325
0.44256991
0.44028097
0.76394807
0.59423952
0.42941561
0.42652152
0.51510337
0.40116877
0.43894374
0.44563364
0.82168739
0.57746152
0.41800244
0.42769822
0.51600408
0.40507373
0.4361379
0.45054675
0.79514368
0.61096399
0.40809529
0.42497354
0.52274863
0.41137574
0.43635031
0.45286694
0.69574051
0.75832079
0.40484934
0.42122117
0.51866932
0.41236825
0.44148098
0.45089215
0.56144798
0.74745383
0.39466344
0.41850234
0.50334807
0.40844425
0.4457839
0.44231683
0.58106979
0.55054335
0.40025729
0.41714354
0.4883293
0.40392687
0.4315765
0.43809667
0.50444732
0.4388068
0.39754151
0.3813541
0.46988232
0.39509987
0.43447824
0.41765325
0.50048716
0.42836451
0.39829801
0.38446044
0.47131222
0.3964541
0.43301079
0.41873717
0.50766064
0.42166729
0.39671014
0.38724871
0.47246242
0.39764012
0.43187839
0.41969077
0.50983163
0.41474908
0.42563301
0.38925764
0.47517345
0.39875731
0.43126179
0.42006046
0.56194589
0.40703751
0.41076548
0.39182524
0.47951712
0.40001846
0.43105804
0.42009051
0.53437427
0.4368029
0.42041247
0.39476519
0.47730523
0.40138863
0.43090468
0.42005615
0.57178316
0.41455533
0.40219593
0.39696439
0.46975314
0.40297614
0.43147058
0.41966157
0.55624881
0.40128086
0.38702757
0.39829977
0.46187037
0.40452498
0.43181759
0.41916221
0.41006415
0.37435181
0.51215203
0.38201363
0.44792485
0.40232668
0.4279606
0.41870603
0.40233231
0.36395963
0.51308994
0.38284471
0.44894045
0.40340541
0.42727014
0.41872472
0.41429037
0.3693929
0.51807368
0.38352437
0.44979142
0.40450664
0.42665999
0.41876424
0.51887615
0.37414521
0.53790657
0.38375747
0.44998838
0.40546489
0.42605038
0.41880921
0.35584398
0.5278119
0.54515364
0.38418971
0.44906992
0.40624045
0.42541029
0.41874952
0.37774233
0.51164124
0.55164829
0.38615145
0.44664609
0.40682191
0.42469963
0.41840546
0.40014449
0.44387117
0.58461468
0.38807719
0.44258104
0.40719618
0.42395816
0.41780483
0.39521768
0.45014228
0.6248143
0.38929713
0.43694632
0.40700377
0.42284858
0.41682512
0.40147133
0.48237108
0.43649441
0.39584213
0.42412539
0.40664202
0.42015471
0.41803836
0.40550767
0.46782751
0.42858771
0.39679656
0.42473845
0.40712436
0.4196647
0.41796982
0.41163765
0.47692075
0.43143931
0.39633493
0.4250799
0.40761725
0.41918287
0.41783591
0.43329348
0.49327147
0.43316724
0.39683838
0.42496783
0.40803112
0.41868256
0.41764053
0.48387248
0.53083789
0.42566514
0.39636738
0.4242288
0.40897852
0.41825923
0.41737447
0.47360858
0.54271616
0.41125454
0.39544407
0.42293829
0.40862767
0.41776008
0.41701354
0.48689687
0.53811981
0.68991795
0.39357684
0.4209948
0.40875828
0.4172702
0.41661466
0.52994458
0.53233625
0.44625554
0.3953091
0.41892663
0.40869393
0.41651598
0.41674076
0.39892426
0.43824198
0.48442728
0.41002337
0.41734112
0.41148687
0.4181079
0.41868086
0.40066107
0.43280306
0.46095832
0.40505378
0.41744991
0.41156653
0.41771437
0.41850909
0.40229801
0.44198891
0.46918697
0.41104465
0.41760275
0.41165977
0.41732235
0.41831485
0.40453759
0.45627259
0.47543994
0.41381811
0.417648
0.41171627
0.41694017
0.41810938
0.42080065
0.47335332
0.47236156
0.41269342
0.42621529
0.41239313
0.41659521
0.41788138
0.42290116
0.51840851
0.47978826
0.4152825
0.41951303
0.41371333
0.41629778
0.41763747
0.4371776
0.54456004
0.66238452
0.41002288
0.41785527
0.41254334
0.41616156
0.41755431
0.43805072
0.53309471
0.45018771
0.41097327
0.41786112
0.41301763
0.41591186
0.41812246
0.39840683
0.41719143
0.55526083
0.42280893
0.42471242
0.41381161
0.41887814
0.41683564
0.3989175
0.41644877
0.50930347
0.41621658
0.42464219
0.41396666
0.41863071
0.41683248
0.39910047
0.44278747
0.54266058
0.41864791
0.42470969
0.4140546
0.41843649
0.41679466
0.40219997
0.44685607
0.54623956
0.44600536
0.42436977
0.41408982
0.41830819
0.41674715
0.40596644
0.46868984
0.55834002
0.44350303
0.43081275
0.41432673
0.41826313
0.41669266
0.40584713
0.44721087
0.42319402
0.42703003
0.43348928
0.41700189
0.41831734
0.41663341
0.40659222
0.458559
0.45107244
0.42679671
0.42026237
0.41652701
0.41848774
0.41683402
0.41935602
0.50526477
0.48003127
0.42638231
0.42147402
0.41727077
0.42097422
0.41797678
0.4032901
0.39805192
0.55486041
0.42527957
0.41144518
0.41503302
0.41550105
0.41546847
0.4027682
0.40592664
0.4878054
0.41651591
0.41181058
0.41482965
0.41546046
0.41539097
0.40263407
0.41325358
0.50236453
0.41707559
0.4119614
0.41463057
0.41544876
0.41530444
0.40278962
0.42644391
0.47989497
0.42536987
0.41099557
0.41444165
0.41548312
0.41521072
0.40308579
0.42227521
0.49633666
0.42972652
0.41035343
0.41443453
0.41555868
0.41512494
0.4010937
0.46776265
0.52100662
0.42831445
0.41906789
0.41415263
0.41565215
0.41505179
0.40736201
0.45127432
0.51624441
0.42900961
0.40831848
0.4175801
0.41633241
0.415097
0.41341141
0.45568182
0.50446172
0.42606529
0.41210587
0.41620218
0.41802485
0.41521236
0.40900152
0.39327496
0.55030608
0.41485652
0.41169034
0.41393258
0.41144383
0.41320456
0.40846333
0.39805473
0.50613918
0.41021624
0.41193669
0.41390755
0.41151414
0.41309355
0.40765048
0.40336211
0.50884609
0.41289081
0.41203765
0.41395256
0.41157639
0.41298021
0.40564282
0.40913078
0.50946745
0.41442521
0.41166874
0.4140586
0.41162907
0.41287026
0.40468165
0.43978171
0.52045378
0.41795604
0.41064834
0.41422169
0.41167525
0.41275617
0.40416707
0.42002405
0.56743442
0.42145526
0.40899463
0.414223
0.411711
0.41261431
0.40348683
0.4259414
0.58111247
0.41666545
0.40825826
0.41384326
0.41227531
0.41245349
0.40726955
0.43819913
0.47981007
0.41724237
0.41016875
0.41490254
0.41330047
0.41250161
0.40454482
0.38601305
0.45800909
0.4080227
0.4087106
0.40856898
0.40830439
0.41005583
0.40353755
0.3890818
0.44872443
0.40731617
0.40855374
0.40866509
0.40827981
0.40999009
0.4037924
0.39180906
0.45273913
0.41007908
0.40826377
0.4087863
0.40825125
0.40992412
0.39902243
0.43117014
0.46106681
0.41341555
0.40802266
0.40891694
0.40821367
0.40986476
0.3993061
0.42869859
0.4544037
0.41370781
0.40696214
0.40903138
0.40817194
0.4097944
0.39928121
0.39740805
0.47088903
0.41430792
0.40368649
0.40905774
0.40811554
0.40970711
0.39739029
0.41003775
0.59372229
0.40994283
0.40189931
0.40947257
0.40800386
0.40960061
0.40121808
0.42400879
0.57101939
0.41329264
0.40583799
0.41091537
0.40794426
0.40955536
0.40330904
0.37897894
0.4731688
0.40619486
0.41824844
0.40284418
0.40591525
0.40570572
0.40243221
0.38274724
0.47260881
0.40533519
0.41793568
0.40327751
0.405829
0.40574117
0.40190139
0.38714402
0.4755826
0.40549404
0.41763858
0.40367131
0.40575022
0.40576889
0.39956541
0.41865119
0.48458477
0.40792989
0.41746468
0.40400797
0.40564896
0.40579864
0.39880306
0.41255107
0.49662771
0.4078672
0.41691977
0.40427453
0.40550438
0.40582136
0.39798473
0.41634698
0.52902681
0.40798234
0.4132216
0.40427446
0.4052842
0.40582691
0.3969091
0.4255021
0.57780315
0.40358891
0.41848796
0.4044326
0.40501954
0.40582358
0.39984487
0.44073933
0.57320522
0.40470959
0.41948057
0.40474971
0.40477171
0.40584622
0.39135968
0.40265149
0.43043003
0.39978647
0.40416454
0.39908772
0.40107625
0.40148304
0.39216868
0.40395585
0.43004129
0.39956111
0.40430904
0.39921691
0.40097795
0.40149853