/*--------------------------------*- C++ -*----------------------------------*\
  =========                 |
  \\      /  F ield         | OpenFOAM: The Open Source CFD Toolbox
   \\    /   O peration     | Website:  https://openfoam.org
    \\  /    A nd           | Version:  13
     \\/     M anipulation  |
\*---------------------------------------------------------------------------*/
FoamFile
{
    format      ascii;
    class       surfaceScalarField;
    location    "0.03";
    object      phi;
}
// * * * * * * * * * * * * * * * * * * * * * * * * * * * * * * * * * * * * * //

dimensions      [0 3 -1 0 0 0 0];

internalField   nonuniform List<scalar> 
150720
(
1.4651627e-11
2.6828248e-09
8.9667327e-10
-5.1683233e-15
-1.7366231e-11
2.641884e-09
9.8427844e-10
-1.8456177e-11
2.6461559e-09
9.490786e-10
-3.1774901e-15
2.6474825e-09
9.2820901e-10
1.8450765e-11
2.6474835e-09
9.2820711e-10
1.7362004e-11
2.6461577e-09
9.4907562e-10
-1.4653285e-11
2.6418866e-09
9.8427322e-10
2.6828272e-09
8.9666888e-10
-4.7636315e-15
-4.3182539e-11
4.1727983e-09
2.0133386e-09
-2.6235929e-14
-1.0154744e-10
4.0080987e-09
2.1522534e-09
-6.9164024e-11
3.9965708e-09
2.077305e-09
-8.7689961e-15
4.0025678e-09
2.0358627e-09
6.9148832e-11
4.0025711e-09
2.0358581e-09
1.0153578e-10
3.9965769e-09
2.0772971e-09
4.3176918e-11
4.0081088e-09
2.1522399e-09
4.1728077e-09
2.0133256e-09
-2.6049945e-14
-7.7772102e-11
4.8721591e-09
2.7045266e-09
-5.3317753e-14
-1.4520989e-10
4.5732433e-09
2.8283552e-09
-9.4811506e-11
4.5405367e-09
2.7316977e-09
-1.2815747e-14
4.5521372e-09
2.6816939e-09
9.4789045e-11
4.5521434e-09
2.6816878e-09
1.4519284e-10
4.5405481e-09
2.731687e-09
7.7764002e-11
4.5732629e-09
2.8283368e-09
4.8721797e-09
2.7045075e-09
-5.3498624e-14
-9.4260796e-11
5.0442112e-09
3.114313e-09
-8.3671823e-14
-1.6008018e-10
4.6368825e-09
3.1942008e-09
-1.0351274e-10
4.5881757e-09
3.0878143e-09
-1.5534538e-14
4.6044758e-09
3.0361849e-09
1.0348536e-10
4.6044848e-09
3.0361783e-09
1.6005939e-10
4.5881923e-09
3.0878024e-09
9.4250724e-11
4.6369119e-09
3.1941803e-09
5.044245e-09
3.1142904e-09
-8.4276997e-14
-9.9300601e-11
4.8799983e-09
3.3216087e-09
-1.158072e-13
-1.5880188e-10
4.4039322e-09
3.350431e-09
-1.0289485e-10
4.3475166e-09
3.2427314e-09
-1.7106042e-14
4.3661435e-09
3.1934339e-09
1.0286458e-10
4.366155e-09
3.1934275e-09
1.5877873e-10
4.3475378e-09
3.2427197e-09
9.9288975e-11
4.4039702e-09
3.3504108e-09
4.880045e-09
3.3215851e-09
-1.1685181e-13
-9.560265e-11
4.516886e-09
3.3828019e-09
-1.4890844e-13
-1.4807732e-10
4.014926e-09
3.3654188e-09
-9.693885e-11
3.9582291e-09
3.2620871e-09
-1.7771424e-14
3.9760115e-09
3.2171489e-09
9.6907274e-11
3.9760249e-09
3.217143e-09
1.4805287e-10
3.958254e-09
3.2620762e-09
9.5589783e-11
4.0149712e-09
3.3654002e-09
4.5169438e-09
3.3827792e-09
-1.5024471e-13
-8.5275545e-11
4.0518888e-09
3.3403521e-09
-1.826281e-13
-1.3226579e-10
3.5646415e-09
3.2871716e-09
-8.802395e-11
3.5120634e-09
3.1918206e-09
-1.7801653e-14
3.5258048e-09
3.1520974e-09
8.7992206e-11
3.5258195e-09
3.1520922e-09
1.3224094e-10
3.512091e-09
3.191811e-09
8.5261985e-11
3.5646918e-09
3.2871551e-09
4.0519552e-09
3.3403314e-09
-1.8400254e-13
-6.8558181e-11
3.2369432e-09
-2.1380491e-13
3.539573e-09
-1.1543746e-10
3.1578716e-09
3.1095046e-09
-7.8316803e-11
3.0716545e-09
3.0591436e-09
-1.7460817e-14
3.0370915e-09
3.0662693e-09
7.8285601e-11
3.0370871e-09
3.0662847e-09
1.1541264e-10
3.0716462e-09
3.0591732e-09
6.8544314e-11
3.1578574e-09
3.1095581e-09
3.2369249e-09
-2.1494354e-13
3.5396449e-09
4.3985027e-11
4.3221193e-10
4.2048406e-10
-7.7453381e-15
3.7094808e-11
4.5412022e-10
5.3704844e-10
1.8628358e-11
4.3583125e-10
5.317138e-10
-6.7093681e-15
4.3112571e-10
5.1571837e-10
-1.8639461e-11
4.3112733e-10
5.1571253e-10
-3.7103559e-11
4.3583541e-10
5.3170431e-10
-4.3988589e-11
4.541255e-10
5.3703275e-10
4.3221663e-10
4.2047102e-10
-7.351428e-15
8.9219426e-11
1.1442046e-09
1.2121862e-09
-5.9741615e-14
7.1836792e-11
1.167304e-09
1.4564523e-09
3.369726e-11
1.1204502e-09
1.4308256e-09
-1.8586772e-14
1.1099152e-09
1.3907891e-09
-3.3729273e-11
1.1099217e-09
1.3907744e-09
-7.1861118e-11
1.1204643e-09
1.4308001e-09
-8.9230273e-11
1.1673245e-09
1.4564101e-09
1.1442247e-09
1.2121463e-09
-5.9091664e-14
1.0814486e-10
1.8530704e-09
1.8876531e-09
-1.3719591e-13
8.178605e-11
1.8457632e-09
2.1762549e-09
3.5869279e-11
1.7698357e-09
2.1282289e-09
-2.7276949e-14
1.7548939e-09
2.0726118e-09
-3.5916904e-11
1.7549073e-09
2.0725919e-09
-8.1821825e-11
1.7698633e-09
2.1281929e-09
-1.081613e-10
1.8458057e-09
2.176195e-09
1.8531151e-09
1.8875919e-09
-1.3601061e-13
1.1034408e-10
2.4353291e-09
2.4219403e-09
-2.3009048e-13
7.7736041e-11
2.375745e-09
2.696827e-09
3.1427175e-11
2.2754077e-09
2.6285512e-09
-3.2857338e-14
2.2579677e-09
2.5645711e-09
-3.1484879e-11
2.2579887e-09
2.5645489e-09
-7.7779257e-11
2.2754501e-09
2.62851e-09
-1.1036432e-10
2.3758128e-09
2.6967583e-09
2.435404e-09
2.4218653e-09
-2.2810905e-13
1.0306664e-10
2.8420775e-09
2.8121254e-09
-3.3172045e-13
6.7615585e-11
2.7224779e-09
3.0391491e-09
2.4585707e-11
2.6059936e-09
2.9551754e-09
-3.5702757e-14
2.5876305e-09
2.8883925e-09
-2.4648585e-11
2.5876588e-09
2.8883702e-09
-6.7662585e-11
2.6060506e-09
2.9551332e-09
-1.0308894e-10
2.7225712e-09
3.0390787e-09
2.8421844e-09
2.8120443e-09
-3.2852039e-13
9.1182177e-11
3.0690293e-09
3.0651055e-09
-4.3766967e-13
5.5701134e-11
2.893659e-09
3.2297188e-09
1.7506146e-11
2.7706841e-09
3.1355916e-09
-3.6434256e-14
2.7523429e-09
3.0699791e-09
-1.7570402e-11
2.7523776e-09
3.0699583e-09
-5.5748965e-11
2.7707541e-09
3.1355512e-09
-9.1204954e-11
2.8937759e-09
3.2296515e-09
3.0691668e-09
3.0650246e-09
-4.327174e-13
7.7507357e-11
3.1378774e-09
3.1945418e-09
-5.4515073e-13
4.383668e-11
2.9175978e-09
3.2969034e-09
1.1090588e-11
2.7973063e-09
3.1979445e-09
-3.5712882e-14
2.7794521e-09
3.1361144e-09
-1.1153672e-11
2.7794919e-09
3.1360959e-09
-4.3883208e-11
2.7973871e-09
3.1979076e-09
-7.7529204e-11
2.9177348e-09
3.2968421e-09
3.1380416e-09
3.1944652e-09
-5.3779459e-13
6.3734831e-11
3.210255e-09
-6.4622071e-13
3.101477e-09
3.2980615e-11
3.2628987e-09
2.8433249e-09
5.7032142e-12
3.1637364e-09
2.7325018e-09
-3.4152381e-14
3.1074159e-09
2.7148651e-09
-5.7639831e-12
3.1073999e-09
2.7149089e-09
-3.3024606e-11
3.1637036e-09
2.7325903e-09
-6.3754857e-11
3.2628447e-09
2.8434778e-09
3.2101852e-09
-6.3586219e-13
3.1016623e-09
3.6747796e-11
9.7614239e-11
2.8612739e-10
-5.3595599e-15
3.7891791e-11
1.2664477e-10
4.0925968e-10
2.0429805e-11
1.2112501e-10
4.2805077e-10
-8.9784609e-15
1.1640686e-10
4.197503e-10
-2.044357e-11
1.164099e-10
4.1973723e-10
-3.7903082e-11
1.2113116e-10
4.2803266e-10
-3.6752249e-11
1.2665251e-10
4.0922941e-10
9.762178e-11
2.8610218e-10
-5.1936507e-15
8.4052487e-11
3.7586388e-10
8.4996497e-10
-8.0855151e-14
8.87869e-11
4.4175889e-10
1.1366038e-09
4.7683699e-11
4.210658e-10
1.171988e-09
-2.4478292e-14
4.0567867e-10
1.1492254e-09
-4.7723598e-11
4.0569037e-10
1.1491931e-09
-8.8817524e-11
4.210865e-10
1.1719387e-09
-8.4065851e-11
4.4178875e-10
1.1365222e-09
3.7589392e-10
8.4988854e-10
-8.0210861e-14
1.1499676e-10
7.6873961e-10
1.3799897e-09
-2.0903891e-13
1.200964e-10
8.5778068e-10
1.7551334e-09
6.3755095e-11
8.155759e-10
1.7900601e-09
-3.5507266e-14
7.8699264e-10
1.7550884e-09
-6.3814171e-11
7.870166e-10
1.7550443e-09
-1.2014053e-10
8.1561655e-10
1.7899892e-09
-1.1501625e-10
8.5784323e-10
1.7550163e-09
7.6880452e-10
1.3798714e-09
-2.0642426e-13
1.3176999e-10
1.2027226e-09
1.85656e-09
-3.7263343e-13
1.3444981e-10
1.291815e-09
2.2601129e-09
7.0455658e-11
1.2247328e-09
2.2833884e-09
-4.2152721e-14
1.1832094e-09
2.2388522e-09
-7.0526205e-11
1.183247e-09
2.2388026e-09
-1.3450173e-10
1.2247967e-09
2.2833054e-09
-1.3179263e-10
1.2919167e-09
2.2599757e-09
1.2028311e-09
1.8564128e-09
-3.6667407e-13
1.3765664e-10
1.6179386e-09
2.2598104e-09
-5.5763946e-13
1.3635537e-10
1.6845515e-09
2.6477138e-09
7.0487276e-11
1.5921287e-09
2.6536475e-09
-4.4993485e-14
1.5396118e-09
2.6025223e-09
-7.0562527e-11
1.5396627e-09
2.6024721e-09
-1.3640991e-10
1.5922168e-09
2.6535604e-09
-1.3767951e-10
1.6846951e-09
2.6475699e-09
1.6180952e-09
2.2596477e-09
-5.4704108e-13
1.3488528e-10
1.9729884e-09
2.575924e-09
-7.5350403e-13
1.2930927e-10
1.999534e-09
2.9203124e-09
6.6004507e-11
1.8836125e-09
2.9074126e-09
-4.4970451e-14
1.8229935e-09
2.8526469e-09
-6.6079339e-11
1.8230562e-09
2.8525992e-09
-1.2936232e-10
1.8837239e-09
2.9073271e-09
-1.3490578e-10
1.9997186e-09
2.9201714e-09
1.9731936e-09
2.5757575e-09
-7.3709878e-13
1.2474382e-10
2.2459723e-09
2.797767e-09
-9.5299948e-13
1.1597526e-10
2.2191267e-09
3.0860792e-09
5.8668961e-11
2.0834554e-09
3.0554079e-09
-4.3032645e-14
2.0181749e-09
2.999645e-09
-5.8740002e-11
2.0182472e-09
2.9996018e-09
-1.16024e-10
2.0835877e-09
3.0553278e-09
-1.247599e-10
2.219349e-09
3.0859476e-09
2.2462231e-09
2.7976055e-09
-9.2969106e-13
1.095625e-10
2.9263466e-09
-1.1421058e-12
2.4214604e-09
9.9528025e-11
3.1592825e-09
2.3327774e-09
5.0255618e-11
3.1124259e-09
2.1840382e-09
-4.0042307e-14
3.0578904e-09
2.1179961e-09
-5.0320517e-11
3.0578527e-09
2.1180748e-09
-9.9570926e-11
3.1123533e-09
2.1841884e-09
-1.0957286e-10
3.159164e-09
2.3330316e-09
2.926196e-09
-1.1110453e-12
2.4217505e-09
1.7162926e-11
4.0735049e-11
2.2822628e-10
3.1303854e-15
2.1800412e-11
5.6257278e-11
3.4836491e-10
1.3032733e-11
5.3730717e-11
3.8308774e-10
-1.3486222e-14
4.8818437e-11
3.8397808e-10
-1.3051034e-11
4.8823359e-11
3.8395141e-10
-2.1816421e-11
5.3738301e-11
3.8305975e-10
-1.7169193e-11
5.6266611e-11
3.4831557e-10
4.0744563e-11
2.2818606e-10
2.366697e-15
4.7843897e-11
1.5296087e-10
6.8998539e-10
-9.0134911e-14
6.0099253e-11
2.0063621e-10
9.7996947e-10
3.5653483e-11
1.9160791e-10
1.0585566e-09
-3.6409057e-14
1.7570901e-10
1.0580248e-09
-3.5708081e-11
1.757287e-10
1.0579594e-09
-6.014254e-11
1.9163327e-10
1.0584782e-09
-4.7863227e-11
2.0067404e-10
9.7983542e-10
1.5299963e-10
6.8986169e-10
-9.1445022e-14
7.3298774e-11
3.2942135e-10
1.1304988e-09
-2.6838773e-13
9.0542282e-11
4.11538e-10
1.5269881e-09
5.3394311e-11
3.9143417e-10
1.6273818e-09
-5.2780717e-14
3.6136754e-10
1.622877e-09
-5.3476024e-11
3.6140816e-10
1.6227881e-09
-9.0604489e-11
3.9148429e-10
1.6272667e-09
-7.3327274e-11
4.1161925e-10
1.5267939e-09
3.2950638e-10
1.1303053e-09
-2.6791552e-13
9.3321235e-11
5.5596651e-10
1.5372031e-09
-5.0958057e-13
1.1256161e-10
6.6400687e-10
1.9884036e-09
6.5942023e-11
6.2803888e-10
2.0934033e-09
-6.2757068e-14
5.829282e-10
2.0832963e-09
-6.6040169e-11
5.8299182e-10
2.0831964e-09
-1.1263467e-10
6.2811865e-10
2.0932656e-09
-9.3354383e-11
6.6414121e-10
1.9881735e-09
5.5610989e-10
1.5369596e-09
-5.0464042e-13
1.0745793e-10
8.1019929e-10
1.8989112e-09
-7.9157058e-13
1.261796e-10
9.2907007e-10
2.363929e-09
7.346294e-11
8.73459e-10
2.4609441e-09
-6.7211309e-14
8.144044e-10
2.4445763e-09
-7.3568139e-11
8.1449017e-10
2.4444746e-09
-1.2625622e-10
8.7357091e-10
2.4607963e-09
-1.0749123e-10
9.2926226e-10
2.3636839e-09
8.104077e-10
1.8986383e-09
-7.7962816e-13
1.1544954e-10
1.0666441e-09
2.2051255e-09
-1.095755e-12
1.3185974e-10
1.1787915e-09
2.6541807e-09
7.6447585e-11
1.101475e-09
2.7348088e-09
-6.755068e-14
1.0311753e-09
2.7123911e-09
-7.6552803e-11
1.0312804e-09
2.7122941e-09
-1.3193426e-10
1.1016192e-09
2.7346603e-09
-1.1547906e-10
1.179042e-09
2.6539365e-09
1.0669191e-09
2.2048416e-09
-1.0746146e-12
1.1713677e-10
1.3014899e-09
2.4471925e-09
-1.4081274e-12
1.3059011e-10
1.3894064e-09
2.862011e-09
7.5659118e-11
1.2907289e-09
2.921085e-09
-6.5154648e-14
1.2130602e-09
2.8934844e-09
-7.5759822e-11
1.2131809e-09
2.893396e-09
-1.3065873e-10
1.2909035e-09
2.9209425e-09
-1.1715951e-10
1.3897118e-09
2.8617786e-09
1.3018287e-09
2.4469123e-09
-1.3759231e-12
1.1296424e-10
2.618706e-09
-1.7054182e-12
1.4978717e-09
1.2405846e-10
2.9930183e-09
1.5445763e-09
7.2118284e-11
3.0271026e-09
1.4279924e-09
-6.1335572e-14
2.99569e-09
1.3474401e-09
-7.2210881e-11
2.9956125e-09
1.3475707e-09
-1.2411925e-10
3.0269701e-09
1.428195e-09
-1.1297817e-10
2.9928046e-09
1.5449301e-09
2.6184399e-09
-1.6607833e-12
1.4982674e-09
1.0705196e-11
2.1003992e-11
1.9649615e-10
2.0940947e-14
1.3807378e-11
3.3295743e-11
3.1196699e-10
8.3872562e-12
3.198174e-11
3.5652612e-10
-2.0638214e-14
2.7267395e-11
3.6511858e-10
-8.410065e-12
2.7276566e-11
3.6506428e-10
-1.3830291e-11
3.1989914e-11
3.5649006e-10
-1.0714507e-11
3.3306938e-11
3.1189285e-10
2.1017031e-11
1.9643679e-10
1.7735283e-14
2.9204801e-11
8.5614879e-11
5.9626383e-10
-9.4132327e-14
3.8714924e-11
1.2151198e-10
8.822431e-10
2.3969341e-11
1.1591122e-10
9.8937267e-10
-5.4780902e-14
1.0058714e-10
1.0087291e-09
-2.4040715e-11
1.0062429e-10
1.0085976e-09
-3.8776076e-11
1.1593796e-10
9.8926549e-10
-2.9234202e-11
1.2155997e-10
8.8204052e-10
8.5666066e-11
5.9607826e-10
-9.9804612e-14
4.5380063e-11
1.8865631e-10
9.8240361e-10
-3.2631705e-13
6.0251794e-11
2.5080382e-10
1.3828246e-09
3.7639171e-11
2.3768093e-10
1.5282248e-09
-7.9369501e-14
2.0875341e-10
1.5524293e-09
-3.7748106e-11
2.0882973e-10
1.5522514e-09
-6.0339517e-11
2.3773424e-10
1.5280618e-09
-4.5424254e-11
2.5090927e-10
1.3825293e-09
1.8876933e-10
9.8211055e-10
-3.3272119e-13
5.9360951e-11
3.2225736e-10
1.3448976e-09
-6.5647611e-13
7.8060364e-11
4.0724015e-10
1.8132679e-09
4.8965284e-11
3.8325816e-10
1.9769211e-09
-9.4861891e-14
3.3990019e-10
2.0012097e-09
-4.9097888e-11
3.4001865e-10
2.0010105e-09
-7.8163732e-11
3.8334505e-10
1.9767206e-09
-5.9413301e-11
4.0741658e-10
1.8129158e-09
3.2244934e-10
1.3445255e-09
-6.5928944e-13
7.0985478e-11
4.7668875e-10
1.6745483e-09
-1.0539073e-12
9.1867018e-11
5.7667452e-10
2.1736131e-09
5.7719003e-11
5.3878076e-10
2.3395695e-09
-1.0255363e-13
4.8188699e-10
2.3604111e-09
-5.786303e-11
4.8204491e-10
2.3602089e-09
-9.1976163e-11
5.3890599e-10
2.3393484e-09
-7.1039277e-11
5.7692879e-10
2.1732348e-09
4.7696922e-10
1.6741279e-09
-1.0487693e-12
7.9837147e-11
6.4029729e-10
1.9631707e-09
-1.4909163e-12
1.0138564e-10
7.4453952e-10
2.4647672e-09
6.3779596e-11
6.9047195e-10
2.6207236e-09
-1.0444632e-13
6.2237424e-10
2.6357879e-09
-6.3925997e-11
6.2256551e-10
2.6355951e-09
-1.01493e-10
6.9063761e-10
2.6204957e-09
-7.9886518e-11
7.4487274e-10
2.464386e-09
6.4066866e-10
1.9627296e-09
-1.4739085e-12
8.5396386e-11
8.0023675e-10
2.2038017e-09
-1.945043e-12
1.0664483e-10
8.9635126e-10
2.6889508e-09
6.7238042e-11
8.2544133e-10
2.8255224e-09
-1.0244661e-13
7.4961864e-10
2.8335805e-09
-6.7381128e-11
7.4983558e-10
2.8334046e-09
-1.0674534e-10
8.2564671e-10
2.8252976e-09
-8.5436747e-11
8.9675973e-10
2.688583e-09
8.0069543e-10
2.2033617e-09
-1.9128634e-12
8.7347569e-11
2.3910269e-09
-2.3810029e-12
9.4294931e-10
1.0803702e-10
2.8501841e-09
1.018496e-09
6.8369041e-11
2.9597099e-09
9.3250201e-10
-9.8515342e-14
2.9605667e-09
8.5320951e-10
-6.8503217e-11
2.9604124e-09
8.5344042e-10
-1.0812875e-10
2.9594951e-09
9.327473e-10
-8.7375717e-11
2.8498402e-09
1.0189711e-09
2.3906039e-09
-2.3310097e-12
9.4348672e-10
6.2269303e-12
1.2631641e-11
1.7759166e-10
4.5928871e-14
8.1230552e-12
2.1295039e-11
2.8877583e-10
4.9468752e-12
2.054862e-11
3.3915368e-10
-3.0560947e-14
1.6587938e-11
3.5350808e-10
-4.9687175e-12
1.6606996e-11
3.5339544e-10
-8.1540875e-12
2.0553475e-11
3.3912195e-10
-6.2404078e-12
2.1304314e-11
2.8867486e-10
1.2643539e-11
1.7751385e-10
3.8997252e-14
1.7376501e-11
5.0743482e-11
5.4086508e-10
-8.9583657e-14
2.3659908e-11
7.7356442e-11
8.198983e-10
1.4981311e-11
7.4246661e-11
9.4435322e-10
-7.8811694e-14
6.1391536e-11
9.7898566e-10
-1.5058397e-11
6.1466389e-11
9.7871779e-10
-2.3740235e-11
7.4260525e-11
9.4424028e-10
-1.7420733e-11
7.7403776e-11
8.1962155e-10
5.0793587e-11
5.4061428e-10
-1.0679524e-13
2.7414091e-11
1.1230818e-10
8.9380538e-10
-3.8055391e-13
3.7854604e-11
1.5993378e-10
1.2898067e-09
2.4517671e-11
1.5238789e-10
1.4634205e-09
-1.1278842e-13
1.2810831e-10
1.510343e-09
-2.4638478e-11
1.2825915e-10
1.5099843e-09
-3.796739e-11
1.5241695e-10
1.4632343e-09
-2.7481826e-11
1.6004533e-10
1.2894022e-09
1.1242667e-10
8.9340358e-10
-4.079395e-13
3.6548967e-11
1.9362094e-10
1.2278509e-09
-8.1495912e-13
5.0527004e-11
2.6076135e-10
1.6984623e-09
3.3199277e-11
2.4642432e-10
1.9002124e-09
-1.3361812e-13
2.0997118e-10
1.9526797e-09
-3.3346837e-11
2.1020198e-10
1.9522809e-09
-5.0657449e-11
2.4647839e-10
1.8999698e-09
-3.6630231e-11
2.6095613e-10
1.6979777e-09
1.9383196e-10
1.2273356e-09
-8.4553116e-13
4.4767832e-11
2.8943146e-10
1.5353223e-09
-1.3523928e-12
6.1496651e-11
3.7137258e-10
2.046273e-09
4.0783037e-11
3.479812e-10
2.2587262e-09
-1.4342529e-13
3.0002776e-10
2.3112809e-09
-4.0942377e-11
3.003316e-10
2.3108782e-09
-6.1631471e-11
3.4807007e-10
2.2584459e-09
-4.4852077e-11
3.7166229e-10
2.0457492e-09
2.8975055e-10
1.5347353e-09
-1.3780692e-12
5.18742e-11
3.932913e-10
1.8093913e-09
-1.954619e-12
7.0496596e-11
4.8323275e-10
2.3342846e-09
4.7051084e-11
4.4896338e-10
2.543187e-09
-1.4527092e-13
3.9135206e-10
2.59166e-09
-4.7211649e-11
3.9171567e-10
2.5912774e-09
-7.0625893e-11
4.4909461e-10
2.5428854e-09
-5.1951975e-11
4.8362222e-10
2.3337522e-09
3.9372512e-10
1.8087704e-09
-1.9673903e-12
5.7524309e-11
4.9796739e-10
2.0441903e-09
-2.5890093e-12
7.7361979e-11
5.878609e-10
2.564485e-09
5.1875424e-11
5.4185036e-10
2.758122e-09
-1.4195927e-13
4.7734831e-10
2.7996016e-09
-5.2031364e-11
4.7775596e-10
2.7992538e-09
-7.7479523e-11
5.4202792e-10
2.7578124e-09
-5.7588093e-11
5.8834876e-10
2.5639651e-09
4.9851461e-10
2.0435658e-09
-2.5816842e-12
6.1295422e-11
2.2348847e-09
-3.2061102e-12
5.9602027e-10
8.2000709e-11
2.7400914e-09
6.7724829e-10
5.5199953e-11
2.9082887e-09
6.2007234e-10
-1.364264e-13
2.9411319e-09
5.5211948e-10
-5.534262e-11
2.9408273e-09
5.5254725e-10
-8.2105452e-11
2.9079811e-09
6.2030474e-10
-6.1339516e-11
2.7395976e-09
6.7782543e-10
2.2342785e-09
-3.1720133e-12
5.9667259e-10
3.8844841e-12
7.5154631e-12
1.661099e-10
8.1808423e-14
4.8737372e-12
1.3896996e-11
2.7388958e-10
2.8618127e-12
1.3670866e-11
3.2749474e-10
-4.9424995e-14
1.0657579e-11
3.4576174e-10
-2.8735637e-12
1.0698821e-11
3.4552076e-10
-4.9176954e-12
1.3661079e-11
3.2750501e-10
-3.9046662e-12
1.3888538e-11
2.7377329e-10
7.5111059e-12
1.6603152e-10
6.6550829e-14
1.0775229e-11
3.0901221e-11
5.0676907e-10
-6.4980191e-14
1.4477424e-11
5.0574918e-11
7.7951818e-10
9.0989857e-12
4.9341948e-11
9.1406058e-10
-1.2296561e-13
3.9503356e-11
9.5936183e-10
-9.1656176e-12
3.9664605e-11
9.5879466e-10
-1.4586299e-11
4.9302991e-11
9.1401905e-10
-1.0848194e-11
5.0575755e-11
7.7919623e-10
3.0895978e-11
5.0649396e-10
-1.127525e-13
1.7052886e-11
6.9108339e-11
8.3895516e-10
-4.0979056e-13
2.3584077e-11
1.0470211e-10
1.2291483e-09
1.5425597e-11
1.0121369e-10
1.4197072e-09
-1.7291217e-13
8.2566849e-11
1.482878e-09
-1.5537454e-11
8.2888998e-11
1.4821245e-09
-2.3732363e-11
1.011436e-10
1.4195886e-09
-1.7170061e-11
1.0474155e-10
1.2286741e-09
6.9131716e-11
8.384969e-10
-4.9911403e-13
2.2935347e-11
1.2002885e-10
1.1549529e-09
-9.5790047e-13
3.2141125e-11
1.7102138e-10
1.6229372e-09
2.1598547e-11
1.6374507e-10
1.8482236e-09
-2.0154082e-13
1.3568389e-10
1.9213628e-09
-2.1734909e-11
1.3617232e-10
1.9205309e-09
-3.2307739e-11
1.6365983e-10
1.8480264e-09
-2.3081477e-11
1.7112905e-10
1.622364e-09
1.2011462e-10
1.1543492e-09
-1.0780608e-12
2.8496592e-11
1.8065517e-10
1.4478579e-09
-1.6585552e-12
4.0083867e-11
2.442799e-10
1.9614272e-09
2.7440338e-11
2.3166353e-10
2.2034513e-09
-2.1246934e-13
1.9467742e-10
2.2799402e-09
-2.758219e-11
1.9531445e-10
2.2791058e-09
-4.0249219e-11
2.3158651e-10
2.2031862e-09
-2.8653666e-11
2.4448212e-10
1.9608006e-09
1.8083427e-10
1.4471563e-09
-1.7943104e-12
3.3676645e-11
2.472672e-10
1.7115646e-09
-2.4619582e-12
4.7252088e-11
3.1929475e-10
2.2456943e-09
3.2763011e-11
2.9999927e-10
2.4893403e-09
-2.1077158e-13
2.5546689e-10
2.5638443e-09
-3.2897451e-11
2.5622194e-10
2.5630566e-09
-4.740139e-11
2.9995382e-10
2.489022e-09
-3.3827223e-11
3.196118e-10
2.2450484e-09
2.4756341e-10
1.7108098e-09
-2.5957663e-12
3.8284973e-11
3.1569761e-10
1.9407985e-09
-3.3235765e-12
5.3496451e-11
3.9100648e-10
2.4775618e-09
3.7403629e-11
3.6423313e-10
2.7099809e-09
-2.0106661e-13
3.1422539e-10
2.7784478e-09
-3.7524836e-11
3.1506355e-10
2.7777359e-09
-5.3620486e-11
3.6423748e-10
2.7096244e-09
-3.8414152e-11
3.9145082e-10
2.4769197e-09
3.1612553e-10
1.9400273e-09
-3.437772e-12
4.1983487e-11
2.1311206e-09
-4.1776564e-12
3.8165583e-10
5.8623688e-11
2.6598206e-09
4.5463714e-10
4.1215657e-11
2.8695195e-09
4.2041038e-10
-1.8811408e-13
2.9292291e-09
3.6753198e-10
-4.1308173e-11
2.9286107e-09
3.6840018e-10
-5.8723058e-11
2.8691381e-09
4.2049529e-10
-4.2078191e-11
2.6591975e-09
4.5520608e-10
2.1303592e-09
-4.2532509e-12
3.8221984e-10
2.4511077e-12
4.4978939e-12
1.5901919e-10
1.4170873e-13
2.902347e-12
9.1109261e-12
2.6432741e-10
1.5740929e-12
9.2487332e-12
3.1957426e-10
-8.8664872e-14
7.1242569e-12
3.4030024e-10
-1.5603685e-12
7.2195507e-12
3.3977291e-10
-2.9684142e-12
9.1871764e-12
3.1972588e-10
-2.4844744e-12
9.0331066e-12
2.6425625e-10
4.4227013e-12
1.59021e-10
1.0335416e-13
6.7973981e-12
1.8819441e-11
4.8562429e-10
2.5836114e-14
8.8123237e-12
3.3226946e-11
7.5338723e-10
5.3102191e-12
3.3424013e-11
8.9338741e-10
-2.1512887e-13
2.6439876e-11
9.4557156e-10
-5.3402744e-12
2.678977e-11
9.4434959e-10
-8.968644e-12
3.3216636e-11
8.9361796e-10
-6.9335387e-12
3.3032299e-11
7.5316194e-10
1.8587169e-11
4.8551178e-10
-1.1581923e-13
1.0815995e-11
4.2546826e-11
8.0474764e-10
-3.3585548e-13
1.4609859e-11
6.8979321e-11
1.1896021e-09
9.3644685e-12
6.865048e-11
1.3897261e-09
-3.0036559e-13
5.5348665e-11
1.463634e-09
-9.4378391e-12
5.6028899e-11
1.4620228e-09
-1.4819021e-11
6.8273953e-11
1.3899124e-09
-1.10488e-11
6.8692012e-11
1.1892441e-09
4.2159358e-11
8.044838e-10
-6.0789337e-13
1.4691888e-11
7.4602687e-11
1.1091784e-09
-9.7319202e-13
2.0294844e-11
1.1305468e-10
1.5732589e-09
1.3578695e-11
1.1126355e-10
1.8123267e-09
-3.4857382e-13
9.1165674e-11
1.899473e-09
-1.367311e-11
9.2182469e-11
1.8977019e-09
-2.052853e-11
1.1074864e-10
1.8124071e-09
-1.4999388e-11
1.1272831e-10
1.5727985e-09
7.4109487e-11
1.1087657e-09
-1.3660153e-12
1.850998e-11
1.1330057e-10
1.3924847e-09
-1.8346255e-12
2.5856081e-11
1.6214501e-10
1.9049908e-09
1.7829078e-11
1.5782232e-10
2.1649196e-09
-3.6565968e-13
1.3124043e-10
2.2580602e-09
-1.7920883e-11
1.3255522e-10
2.2562882e-09
-2.6085387e-11
1.5722692e-10
2.1648724e-09
-1.8861027e-11
1.6184704e-10
1.9044575e-09
1.1277195e-10
1.3919501e-09
-2.3172802e-12
2.2263142e-11
1.5646429e-10
1.6489974e-09
-2.8596626e-12
3.1203407e-11
2.1299934e-10
2.1858997e-09
2.1971556e-11
2.0512189e-10
2.4512726e-09
-3.5998743e-13
1.7301495e-10
2.5444013e-09
-2.2044138e-11
1.7456439e-10
2.5427316e-09
-3.1404717e-11
2.0451052e-10
2.451099e-09
-2.2624148e-11
2.1279849e-10
2.1853163e-09
1.5597539e-10
1.6483741e-09
-3.3918351e-12
2.5844248e-11
2.0160225e-10
1.8738074e-09
-3.991087e-12
3.623074e-11
2.6244909e-10
2.4177256e-09
2.5862437e-11
2.5026896e-10
2.6752022e-09
-3.3930545e-13
2.1410271e-10
2.7635618e-09
-2.5909292e-11
2.1581518e-10
2.7620551e-09
-3.6387914e-11
2.4969805e-10
2.6749155e-09
-2.6183652e-11
2.6240521e-10
2.4171087e-09
2.0122164e-10
1.8731258e-09
-4.5283991e-12
2.9009289e-11
2.0627398e-09
-5.1462421e-12
2.4612004e-10
4.0759729e-11
2.6030435e-09
3.0747567e-10
2.9362756e-11
2.8404983e-09
2.9068715e-10
-3.1190687e-13
2.9206515e-09
2.52355e-10
-2.9351198e-11
2.9193439e-09
2.5412134e-10
-4.0875033e-11
2.8401175e-09
2.9024248e-10
-2.92947e-11
2.6024062e-09
3.0761617e-10
2.0620228e-09
-5.6369016e-12
2.4590031e-10
1.5396803e-12
2.6907976e-12
1.5453693e-10
2.5179151e-13
1.6219291e-12
6.0251514e-12
2.5822002e-10
6.7688063e-13
6.3612661e-12
3.1415804e-10
-1.7998734e-13
4.9599968e-12
3.3619711e-10
-6.0380296e-13
5.1483271e-12
3.350484e-10
-1.7087305e-12
6.1002795e-12
3.1473053e-10
-1.5792664e-12
5.6997608e-12
2.5842702e-10
2.4045064e-12
1.5488569e-10
1.5152953e-13
4.2414589e-12
1.14356e-11
4.7228704e-10
3.5099059e-13
5.0905336e-12
2.1914418e-11
7.366489e-10
2.6191227e-12
2.2978616e-11
8.7924147e-10
-4.3100183e-13
1.829751e-11
9.3528418e-10
-2.5412526e-12
1.9033265e-11
9.325749e-10
-5.2854649e-12
2.2157038e-11
8.8030542e-10
-4.4835347e-12
2.0970724e-11
7.3708904e-10
1.0515247e-11
4.7303706e-10
-1.1955871e-13
6.8009882e-12
2.6151082e-11
7.8321542e-10
1.5755233e-14
8.663041e-12
4.5481096e-11
1.1641734e-09
5.0066667e-12
4.719604e-11
1.3691651e-09
-6.0590537e-13
3.820532e-11
1.4493388e-09
-4.9552805e-12
3.9668039e-11
1.4457374e-09
-8.9230855e-12
4.5753226e-11
1.3702841e-09
-7.2559269e-12
4.3979719e-11
1.164568e-09
2.4400354e-11
7.8409116e-10
-7.4839642e-13
9.3765792e-12
4.6168117e-11
1.0803726e-09
-5.8783641e-13
1.2360035e-11
7.4624054e-11
1.5411325e-09
7.7363302e-12
7.6542112e-11
1.7876043e-09
-7.1321088e-13
6.2882873e-11
1.883245e-09
-7.7038614e-12
6.5099345e-11
1.8792612e-09
-1.2661912e-11
7.4604279e-11
1.7885141e-09
-1.0019623e-11
7.2732079e-11
1.5414039e-09
4.3701816e-11
1.0811813e-09
-1.7366829e-12
1.2053368e-11
7.0583097e-11
1.3575552e-09
-1.5388455e-12
1.6189288e-11
1.0727109e-10
1.8682079e-09
1.0711087e-11
1.0872743e-10
2.1382124e-09
-7.6217068e-13
9.0585708e-11
2.2418306e-09
-1.0677584e-11
9.3482087e-11
2.2378209e-09
-1.6498049e-11
1.0649701e-10
2.1388002e-09
-1.2831564e-11
1.0520136e-10
1.8683218e-09
6.7608913e-11
1.3581989e-09
-2.987459e-12
1.4842796e-11
9.8163644e-11
1.6093325e-09
-2.7585186e-12
2.0094138e-11
1.4138766e-10
2.1465318e-09
1.3811179e-11
1.4163201e-10
2.424651e-09
-7.6600376e-13
1.1964271e-10
2.5299215e-09
-1.3759912e-11
1.2308485e-10
2.5261227e-09
-2.0375532e-11
1.3931601e-10
2.4248956e-09
-1.5692021e-11
1.3936359e-10
2.1464706e-09
9.4933286e-11
1.6097654e-09
-4.407679e-12
1.7678108e-11
1.2745227e-10
1.8310171e-09
-4.1764414e-12
2.3995416e-11
1.7496929e-10
2.3778266e-09
1.6910688e-11
1.733351e-10
2.6505838e-09
-7.3705971e-13
1.4848795e-10
2.7523643e-09
-1.6835751e-11
1.5231725e-10
2.7489214e-09
-2.4222282e-11
1.7110335e-10
2.6505147e-09
-1.8533223e-11
1.7319417e-10
2.3775891e-09
1.2421409e-10
1.8312266e-09
-5.9148494e-12
2.0386532e-11
2.0186272e-09
-5.6951814e-12
1.5687349e-10
2.7735597e-11
2.5645798e-09
2.0608399e-10
1.9903027e-11
2.8196042e-09
2.020617e-10
-6.9080696e-13
2.9140201e-09
1.7571313e-10
-1.9733228e-11
2.9110338e-09
1.796697e-10
-2.7916531e-11
2.8192789e-09
2.0012528e-10
-2.1170766e-11
2.564181e-09
2.0467361e-10
2.018613e-09
-7.3904068e-12
1.5384345e-10
8.1940613e-13
1.7644632e-12
1.5140927e-10
5.437861e-13
5.8483065e-13
4.0138966e-12
2.544407e-10
-2.1296211e-13
4.3048081e-12
3.1065103e-10
-3.543874e-13
3.4564607e-12
3.3288208e-10
4.688759e-13
3.5233584e-12
3.3070178e-10
-5.9400172e-13
3.2696267e-12
3.1252378e-10
-9.0908375e-13
2.5386268e-12
2.5620348e-10
8.2997326e-13
1.5295148e-10
1.9516228e-13
2.1823456e-12
7.2509108e-12
4.6336196e-10
1.2562872e-12
2.1021415e-12
1.4320199e-11
7.264228e-10
5.760698e-15
1.5540276e-11
8.7010239e-10
-8.506681e-13
1.2547364e-11
9.270497e-10
1.311718e-13
1.3311051e-11
9.2180537e-10
-2.1498867e-12
1.2528707e-11
8.733274e-10
-2.6633176e-12
1.1244369e-11
7.2889673e-10
4.3905835e-12
4.6694763e-10
-1.3448996e-13
3.5632311e-12
1.6129903e-11
7.6930221e-10
1.4709843e-12
3.9328771e-12
2.9390055e-11
1.1487339e-09
9.4241385e-13
3.1825771e-11
1.3558701e-09
-1.2127808e-12
2.604068e-11
1.4380007e-09
-7.458359e-13
2.7842409e-11
1.4307391e-09
-4.0371825e-12
2.7074232e-11
1.3590299e-09
-4.470917e-12
2.4811539e-11
1.1514346e-09
1.1057864e-11
7.7388287e-10
-9.2989642e-13
5.1246937e-12
2.8077243e-11
1.0621953e-09
1.1052658e-12
6.108034e-12
4.7878153e-11
1.521661e-09
2.4242797e-12
5.1538806e-11
1.771575e-09
-1.4567794e-12
4.2699747e-11
1.870467e-09
-2.2033216e-12
4.5787686e-11
1.8620625e-09
-6.2755742e-12
4.5601341e-11
1.7740593e-09
-6.4355217e-12
4.2114882e-11
1.5242605e-09
2.0953027e-11
1.0670566e-09
-2.2059879e-12
6.9494824e-12
4.2700987e-11
1.3358525e-09
1.2952672e-13
8.6309289e-12
6.853149e-11
1.8458731e-09
4.367199e-12
7.3178448e-11
2.1208365e-09
-1.59667e-12
6.1385831e-11
2.2291084e-09
-4.1374582e-12
6.5846438e-11
2.220303e-09
-8.8373385e-12
6.6641261e-11
2.1224601e-09
-8.5806705e-12
6.2081986e-11
1.848098e-09
3.3893078e-11
1.3405116e-09
-3.833448e-12
9.0533267e-12
5.9247625e-11
1.5849079e-09
-1.1753326e-12
1.1448312e-11
9.0144022e-11
2.1225243e-09
6.6426388e-12
9.5361695e-11
2.4072734e-09
-1.6523152e-12
8.1015825e-11
2.5185865e-09
-6.4029072e-12
8.6755798e-11
2.509964e-09
-1.1658342e-11
8.8744191e-11
2.4080481e-09
-1.0892118e-11
8.3571055e-11
2.1242153e-09
4.9393055e-11
1.5890606e-09
-5.6872813e-12
1.1388184e-11
7.6973488e-11
1.8047757e-09
-2.8727328e-12
1.4483368e-11
1.1151923e-10
2.3533562e-09
9.1157514e-12
1.168262e-10
2.6344869e-09
-1.6420849e-12
1.0056087e-10
2.7435771e-09
-8.8698002e-12
1.0734807e-10
2.7355569e-09
-1.4662328e-11
1.1052107e-10
2.6345303e-09
-1.3310225e-11
1.0536414e-10
2.3544439e-09
6.672105e-11
1.8082451e-09
-7.6566954e-12
1.3828371e-11
1.9916005e-09
-4.8369479e-12
9.5008818e-11
1.7580549e-11
2.5408537e-09
1.314931e-10
1.1699228e-11
2.8059786e-09
1.3633314e-10
-1.5952942e-12
2.908772e-09
1.1910351e-10
-1.1344205e-11
2.9016586e-09
1.2647216e-10
-1.7762925e-11
2.8054723e-09
1.3074635e-10
-1.5667903e-11
2.541339e-09
1.2611112e-10
1.9942809e-09
-9.5886337e-12
8.4973928e-11
4.6233467e-13
-3.2633596e-13
1.4929677e-10
1.9765049e-12
-3.7780003e-13
2.5875082e-12
2.5269332e-10
-1.6057743e-12
2.488548e-12
3.0939046e-10
-7.2334979e-13
2.1609355e-12
3.2983872e-10
3.0018145e-12
-9.6687331e-13
3.2794349e-10
9.1886194e-13
-6.9421029e-12
3.2154883e-10
-2.0214678e-12
2.6914615e-12
2.5645235e-10
-1.6993258e-12
1.5297073e-10
-3.4139218e-13
1.0976236e-12
4.7305902e-12
4.5738684e-10
-1.7941972e-13
-7.0552504e-13
8.6275408e-12
7.2218592e-10
-3.7978482e-12
9.0107389e-12
8.6667252e-10
-1.8285034e-12
7.4878609e-12
9.1975343e-10
5.7866318e-12
2.5500294e-12
9.1067333e-10
2.5822084e-12
-1.5030782e-11
8.846205e-10
-1.4338273e-13
4.4269775e-12
7.2988681e-10
-1.7560636e-12
4.6699288e-10
-1.3190256e-13
1.436556e-12
1.0737811e-11
7.6135514e-10
5.0329732e-13
-5.8423938e-13
1.6771124e-11
1.1426111e-09
-4.8712661e-12
1.8508124e-11
1.3506597e-09
-2.7594575e-12
1.5349551e-11
1.4280272e-09
6.5085e-12
1.1644873e-11
1.4123763e-09
2.143381e-12
-1.2261294e-11
1.3606255e-09
-1.1542885e-12
7.0513883e-12
1.1521078e-09
-1.5924569e-12
7.73616e-10
-1.0510323e-12