/*--------------------------------*- C++ -*----------------------------------*\
  =========                 |
  \\      /  F ield         | OpenFOAM: The Open Source CFD Toolbox
   \\    /   O peration     | Website:  https://openfoam.org
    \\  /    A nd           | Version:  13
     \\/     M anipulation  |
\*---------------------------------------------------------------------------*/
FoamFile
{
    format      ascii;
    class       volVectorField;
    location    "0.03";
    object      U;
}
// * * * * * * * * * * * * * * * * * * * * * * * * * * * * * * * * * * * * * //

dimensions      [0 1 -1 0 0 0 0];

internalField   nonuniform List<vector> 
51200
(
(0.053678226 0.013032868 0.011993779)
(0.058717355 0.0070251372 0.012189156)
(0.057346954 0.0031663035 0.012276437)
(0.056614592 0.00083913054 0.012305274)
(0.056614564 -0.00083950828 0.012305276)
(0.057346926 -0.0031666082 0.012276441)
(0.058717294 -0.0070253346 0.012189162)
(0.053678176 -0.013032887 0.011993784)
(0.12334587 0.032111441 0.034139995)
(0.13025562 0.014377112 0.033373021)
(0.12720192 0.0065383361 0.033357943)
(0.12578089 0.001763935 0.033384597)
(0.12578082 -0.0017649938 0.033384615)
(0.12720184 -0.0065392019 0.033357976)
(0.13025546 -0.014377685 0.033373073)
(0.12334572 -0.032111568 0.034140042)
(0.16731107 0.04182944 0.046708549)
(0.17259679 0.01817308 0.044457019)
(0.16866102 0.0083203948 0.044232597)
(0.16699779 0.0022646389 0.044317237)
(0.1669977 -0.0022661956 0.044317283)
(0.16866091 -0.0083216824 0.044232681)
(0.17259658 -0.018173969 0.044457163)
(0.16731085 -0.04182973 0.046708691)
(0.19443181 0.045624706 0.052654989)
(0.19698615 0.01991541 0.048948513)
(0.19271627 0.0091466873 0.048514115)
(0.1910499 0.0025090065 0.048664128)
(0.19104981 -0.002510898 0.048664208)
(0.19271616 -0.0091482709 0.04851426)
(0.19698593 -0.019916554 0.048948767)
(0.19443156 -0.045625196 0.052655267)
(0.21038709 0.046085121 0.054497764)
(0.21023571 0.020466204 0.0496307)
(0.20598488 0.0093959645 0.049047042)
(0.20443211 0.0025981056 0.049245371)
(0.20443202 -0.0026001914 0.049245484)
(0.20598478 -0.0093977342 0.049047248)
(0.21023551 -0.020467546 0.049631067)
(0.21038684 -0.046085828 0.054498198)
(0.21894053 0.044645468 0.053680014)
(0.21658653 0.020323645 0.048059514)
(0.21256844 0.0093002572 0.047404986)
(0.21117668 0.0025939294 0.047621178)
(0.21117661 -0.002596099 0.047621322)
(0.21256835 -0.0093021264 0.047405249)
(0.21658636 -0.020325136 0.04805999)
(0.21894031 -0.044646387 0.053680609)
(0.22265175 0.042116062 0.051110334)
(0.21872431 0.019783731 0.045204869)
(0.21506197 0.0090003141 0.04453875)
(0.21384318 0.002533935 0.044735384)
(0.21384312 -0.0025361101 0.044735554)
(0.2150619 -0.0090022163 0.044539063)
(0.21872416 -0.019785318 0.04520544)
(0.22265156 -0.042117158 0.051111078)
(0.2232227 0.039089093 0.047594888)
(0.21832354 0.018961875 0.041635909)
(0.21508557 0.0085873141 0.041060629)
(0.21403628 0.0024404654 0.041205002)
(0.21403622 -0.002442595 0.041205191)
(0.21508551 -0.0085892084 0.041060986)
(0.21832342 -0.018963517 0.041636556)
(0.22322254 -0.039090321 0.047595748)
(0.036136508 0.0033187429 0.0011844666)
(0.041733473 0.0037047397 0.0012982256)
(0.039977772 0.0021729189 0.0012334585)
(0.038670286 0.00069897385 0.0012146025)
(0.038670103 -0.00069977381 0.0012146033)
(0.039977468 -0.0021735498 0.001233467)
(0.041732957 -0.0037051431 0.0012982317)
(0.036136075 -0.0033187906 0.001184471)
(0.096026662 0.011190582 0.0073575072)
(0.10671225 0.010485386 0.0076743781)
(0.10219775 0.0059097174 0.0073768084)
(0.099189569 0.0018644848 0.0073000819)
(0.099189101 -0.0018667345 0.0073001165)
(0.10219692 -0.0059115298 0.0073768855)
(0.10671085 -0.01048659 0.0076744843)
(0.096025328 -0.011190865 0.0073576055)
(0.14530966 0.019319057 0.015054231)
(0.15675417 0.016105849 0.015216774)
(0.15016803 0.0088702064 0.014604205)
(0.14615816 0.0027709304 0.014470182)
(0.14615751 -0.0027742506 0.014470278)
(0.15016685 -0.0088729225 0.014604403)
(0.15675215 -0.016107725 0.015217073)
(0.14530758 -0.019319664 0.015054533)
(0.18445322 0.0263654 0.022618084)
(0.19384793 0.02035293 0.022309378)
(0.18582385 0.011039807 0.021378795)
(0.18132825 0.0034302008 0.021203914)
(0.1813275 -0.0034342091 0.021204092)
(0.18582246 -0.011043134 0.021379153)
(0.19384557 -0.02035533 0.022309942)
(0.18445063 -0.02636639 0.022618689)
(0.21408145 0.031733777 0.029048834)
(0.21992997 0.023273227 0.028073448)
(0.2110366 0.012494902 0.026874818)
(0.20641534 0.0038738487 0.026675946)
(0.20641458 -0.0038782086 0.026676215)
(0.21103515 -0.012498573 0.026875355)
(0.21992751 -0.023275999 0.028074318)
(0.2140786 -0.031735166 0.029049811)
(0.23515636 0.035369209 0.03395398)
(0.23698383 0.025032413 0.032248192)
(0.2277052 0.013349569 0.030864816)
(0.2231927 0.004139995 0.030654189)
(0.22319196 -0.0041444461 0.030654549)
(0.22770378 -0.013353369 0.030865538)
(0.23698143 -0.025035418 0.032249387)
(0.23515346 -0.035370974 0.033955366)
(0.24884525 0.037482216 0.037312401)
(0.24689183 0.025812437 0.034902262)
(0.23761576 0.013720364 0.033432926)
(0.23335406 0.0042649155 0.033218537)
(0.23335338 -0.0042692789 0.033218984)
(0.23761443 -0.013724141 0.033433824)
(0.24688958 -0.02581556 0.034903777)
(0.24884244 -0.0374843 0.037314203)
(0.25629689 0.038327807 0.039258519)
(0.25128494 0.025754227 0.036182289)
(0.24229577 0.013709694 0.034759708)
(0.23836663 0.0042787392 0.034548134)
(0.23836602 -0.0042829008 0.034548656)
(0.24229455 -0.013713349 0.03476076)
(0.25128289 -0.025757372 0.036184093)
(0.25629425 -0.038330122 0.039260687)
(0.016190137 0.0015131377 1.432958e-05)
(0.023315375 0.0028710196 9.9744175e-05)
(0.024040295 0.0019366446 9.9764746e-05)
(0.023394469 0.00064537342 9.4818369e-05)
(0.023393985 -0.0006464269 9.4819536e-05)
(0.024039533 -0.0019374277 9.9777599e-05)
(0.023314116 -0.0028715365 9.9751853e-05)
(0.016189076 -0.0015132047 1.4337584e-05)
(0.05222999 0.0051526586 0.0019688925)
(0.069020815 0.0081153141 0.002435005)
(0.069901379 0.0052811576 0.0023278985)
(0.068050837 0.0017524692 0.0022388222)
(0.06804959 -0.0017554039 0.0022388857)
(0.069899257 -0.0052833989 0.0023280108)
(0.069017314 -0.0081168358 0.0024351594)
(0.052226663 -0.0051530414 0.0019690421)
(0.089684709 0.0097125755 0.0054579097)
(0.11181842 0.012888632 0.0062674846)
(0.11192803 0.0081249535 0.005971404)
(0.10903582 0.0026786379 0.0057560629)
(0.10903406 -0.0026829278 0.005756236)
(0.1119249 -0.0081282832 0.0059716947)
(0.11181324 -0.012890964 0.0062679221)
(0.089679401 -0.0097133592 0.0054583537)
(0.12630967 0.014813576 0.010119876)
(0.15006442 0.01704954 0.011102042)
(0.14887126 0.010451075 0.010546238)
(0.14516236 0.003424486 0.010181143)
(0.1451603 -0.0034295942 0.010181461)
(0.1488675 -0.010455098 0.010546769)
(0.15005818 -0.017052468 0.011102878)
(0.12630286 -0.0148148 0.010120753)
(0.16010161 0.019916449 0.015310935)
(0.18261308 0.020453801 0.01621369)
(0.17992927 0.012247003 0.015353211)
(0.17565491 0.0039936799 0.014838221)
(0.17565275 -0.0039991396 0.014838702)
(0.17992522 -0.012251359 0.015354028)
(0.18260635 -0.020457111 0.016215011)
(0.16009387 -0.019918107 0.015312357)
(0.1895316 0.024599304 0.020505345)
(0.20892919 0.023009664 0.021072717)
(0.20481599 0.013520039 0.019885772)
(0.20021708 0.0043951721 0.019235361)
(0.20021496 -0.0044006317 0.01923601)
(0.20481192 -0.013524451 0.019886901)
(0.20892242 -0.023013172 0.021074577)
(0.18952345 -0.024601358 0.020507391)
(0.21361422 0.028597611 0.025342858)
(0.2290347 0.024671464 0.025330914)
(0.22368794 0.014299865 0.023818884)
(0.2189719 0.0046431673 0.023059398)
(0.21896991 -0.0046483933 0.023060208)
(0.22368401 -0.014304143 0.023820332)
(0.22902819 -0.024675029 0.025333337)
(0.21360609 -0.028600002 0.025345572)
(0.23183273 0.031608841 0.029333164)
(0.243381 0.025445577 0.028635918)
(0.2370002 0.014640715 0.02685981)
(0.23233657 0.0047566009 0.026044804)
(0.23233476 -0.0047614466 0.026045749)
(0.23699651 -0.01464474 0.026861562)
(0.24337495 -0.025449082 0.02863888)
(0.2318249 -0.03161147 0.029336508)
(0.014272423 0.00058397389 7.5266565e-05)
(0.02098748 0.0015817417 0.00010442273)
(0.02250042 0.0012341791 9.7151137e-05)
(0.022281139 0.00043447288 8.6990997e-05)
(0.022280144 -0.00043601481 8.6990109e-05)
(0.022499176 -0.0012351962 9.7169173e-05)
(0.020985372 -0.0015825062 0.00010442765)
(0.014270693 -0.00058404823 7.5273683e-05)
(0.043987359 0.0022472487 0.00076605978)
(0.060612937 0.0048459585 0.0010463809)
(0.064027243 0.0036282683 0.0010027117)
(0.063322734 0.001268155 0.00091300432)
(0.063320198 -0.0012724548 0.00091311108)
(0.064023675 -0.0036312337 0.0010028464)
(0.060606998 -0.0048481841 0.0010465708)
(0.043981857 -0.0022477666 0.00076624831)
(0.074251213 0.0045686802 0.002230864)
(0.097587008 0.0081451805 0.0028759113)
(0.10187169 0.0058810539 0.0027457536)
(0.10062681 0.0020395922 0.0025240636)
(0.10062322 -0.0020458953 0.0025243588)
(0.1018663 -0.0058854925 0.0027461071)
(0.097578085 -0.0081485616 0.0028764725)
(0.0742423 -0.0045697703 0.00223144)
(0.10445825 0.0074619362 0.0044533719)
(0.13165973 0.011348272 0.0054648242)
(0.13594196 0.007919845 0.0051891943)
(0.13412873 0.0027256244 0.0048013999)
(0.13412453 -0.0027331527 0.0048019417)
(0.13593532 -0.0079252284 0.0051898508)
(0.13164877 -0.011352471 0.0054659199)
(0.10444661 -0.0074636382 0.0044545252)
(0.13382167 0.010756475 0.0073133501)
(0.16243748 0.014297212 0.0085857711)
(0.16604486 0.0096749409 0.0081028178)
(0.16368055 0.0033067385 0.0075356538)
(0.16367609 -0.0033148176 0.00753647)
(0.16603751 -0.0096807912 0.0081038439)
(0.16242536 -0.014301912 0.0085875273)
(0.13380811 -0.010758755 0.007315235)
(0.16142311 0.014233488 0.010621785)
(0.18950631 0.016836856 0.011971046)
(0.19197736 0.011093865 0.011225367)
(0.18912343 0.0037700815 0.010484276)
(0.18911898 -0.0037782091 0.010485371)
(0.19196975 -0.011099818 0.01122681)
(0.18949378 -0.016841798 0.011973552)
(0.16140846 -0.014236274 0.010624517)
(0.18632252 0.017650383 0.014148642)
(0.21257463 0.018834182 0.015340527)
(0.213621 0.012149682 0.014295178)
(0.21037164 0.0041109066 0.013403958)
(0.21036741 -0.0041187517 0.013405317)
(0.21361345 -0.012155499 0.014297065)
(0.21256227 -0.018839176 0.015343832)
(0.18630749 -0.017653583 0.014152292)
(0.20768179 0.020683938 0.017508367)
(0.23159729 0.020217637 0.018430884)
(0.23100327 0.01284519 0.017073576)
(0.22747611 0.0043329666 0.016086255)
(0.22747221 -0.0043403194 0.01608783)
(0.23099601 -0.012850726 0.017075912)
(0.23158548 -0.020222526 0.018434978)
(0.20766693 -0.020687426 0.017512905)
(0.011534036 0.00032553816 1.3148069e-05)
(0.018107141 0.00097307828 4.1491455e-05)
(0.020393701 0.00079426818 4.1324238e-05)
(0.020686234 0.00028245754 3.3001783e-05)
(0.020684199 -0.00028472815 3.2997945e-05)
(0.020391881 -0.00079545702 4.1349127e-05)
(0.018103776 -0.00097429327 4.1491712e-05)
(0.011531309 -0.00032557423 1.3159989e-05)
(0.036373114 0.0012590774 0.00041975678)
(0.053134747 0.003021093 0.00063495631)
(0.058717492 0.0024102594 0.00060930608)
(0.059327015 0.00086181393 0.00052252832)
(0.059321901 -0.00086813679 0.00052273214)
(0.05871207 -0.002413867 0.00060944231)
(0.053125217 -0.0030245498 0.00063519098)
(0.036364345 -0.0012597355 0.0004200069)
(0.062296939 0.0025865874 0.0012669256)
(0.086497604 0.0051655941 0.0017494946)
(0.094205301 0.0040177647 0.0016661208)
(0.094878533 0.0014347606 0.0014527046)
(0.094871335 -0.0014440699 0.0014532646)
(0.094196911 -0.0040232621 0.0016664864)
(0.086483196 -0.0051707905 0.001750215)
(0.062282623 -0.0025881146 0.0012676863)
(0.088732113 0.004294363 0.0025608745)
(0.11792406 0.0073562344 0.0033335482)
(0.12672689 0.0055687676 0.0031521729)
(0.12724773 0.0019810865 0.0027798893)
(0.12723931 -0.001992289 0.0027809079)
(0.12671633 -0.0055755261 0.0031528717)
(0.11790622 -0.007362633 0.0033349797)
(0.08871327 -0.0042968433 0.0025624115)
(0.1150751 0.0063244235 0.0042584298)
(0.14714263 0.0095087605 0.0052826279)
(0.15616178 0.0070061001 0.0049584309)
(0.15636343 0.0024802696 0.0044136358)
(0.1563545 -0.0024924213 0.0044151528)
(0.15614984 -0.0070135448 0.0049595564)
(0.14712272 -0.0095158683 0.0052849446)
(0.11505299 -0.0063278055 0.0042609599)
(0.14069003 0.0085895134 0.0062946513)
(0.17390247 0.011518368 0.0074734431)
(0.18240744 0.0082748294 0.0069608991)
(0.18217724 0.0029143559 0.0062462634)
(0.18216833 -0.0029267552 0.0062482739)
(0.18239479 -0.0082825297 0.0069625265)
(0.17388161 -0.011525797 0.0074767707)
(0.14066589 -0.0085936717 0.0062983346)
(0.16492032 0.010962553 0.0085678948)
(0.19801662 0.013274778 0.0097552696)
(0.20539654 0.0093325623 0.0090176618)
(0.20467577 0.0032705938 0.0081526865)
(0.20466726 -0.0032827752 0.0081551532)
(0.2053837 -0.009340246 0.0090198439)
(0.19799569 -0.013282249 0.0097596824)
(0.16489522 -0.010967335 0.0085728322)
(0.18712353 0.013230638 0.01085377)
(0.21943031 0.014702545 0.011990424)
(0.22511791 0.01015709 0.010998681)
(0.22390306 0.0035432652 0.010030023)
(0.22389519 -0.003554923 0.010032842)
(0.22510525 -0.010164607 0.011001463)
(0.21940995 -0.014709829 0.011995907)
(0.18709836 -0.013235853 0.010859932)
(0.010301181 0.00018207316 1.2842913e-05)
(0.016590018 0.00057582381 3.0515562e-05)
(0.019269687 0.00047597215 2.9550543e-05)
(0.019933035 0.00016885307 2.2170058e-05)
(0.01992883 -0.00017203304 2.2167197e-05)
(0.019267607 -0.00047688572 2.9583489e-05)
(0.016585145 -0.00057780056 3.0500038e-05)
(0.010297345 -0.00018190496 1.2845996e-05)
(0.032515311 0.00072294085 0.00024761934)
(0.048831335 0.001833725 0.00040288822)
(0.055642035 0.0015091931 0.00038931123)
(0.057269141 0.00054611555 0.00031674319)
(0.05725876 -0.00055490575 0.00031716505)
(0.055635222 -0.0015123648 0.00038936334)
(0.048817466 -0.0018391206 0.00040310269)
(0.032502686 -0.00072354819 0.00024784658)
(0.055812886 0.001508664 0.00074978172)
(0.0797864 0.0031984425 0.0011129402)
(0.08957252 0.0025962694 0.0010666558)
(0.091808873 0.00094555701 0.00088783933)
(0.091794392 -0.00095842112 0.00088896471)
(0.089561459 -0.0026012515 0.0010668206)
(0.079765326 -0.0032063203 0.0011136773)
(0.055792018 -0.0015105425 0.00075054689)
(0.07977212 0.0025408797 0.0015290535)
(0.10929163 0.0046472868 0.0021284497)
(0.12100262 0.0037040968 0.0020227839)
(0.12352371 0.0013508378 0.0017102855)
(0.12350688 -0.0013662221 0.001712294)
(0.12098818 -0.0037102491 0.002023165)
(0.10926538 -0.0046567057 0.0021299969)
(0.079744392 -0.0025442055 0.001530698)
(0.10394721 0.003798618 0.0025686508)
(0.13717829 0.0061356615 0.0033889813)
(0.14987111 0.004791731 0.0031927704)
(0.15239335 0.0017447836 0.0027344894)
(0.15237556 -0.0017613724 0.0027374367)
(0.14985425 -0.0047984605 0.0031934955)
(0.13714874 -0.0061457959 0.0033915804)
(0.10391439 -0.0038033095 0.0025714752)
(0.12787061 0.0052443082 0.0038388911)
(0.16329442 0.0076026376 0.0048251242)
(0.17612613 0.0058165588 0.0045056284)
(0.1784142 0.0021109754 0.0039027116)
(0.17839648 -0.0021278184 0.0039065688)
(0.17610769 -0.0058234539 0.0045068222)
(0.16326316 -0.0076128672 0.0048289679)
(0.12783446 -0.0052501377 0.0038431334)
(0.15105921 0.0068153423 0.0052897096)
(0.18753494 0.0089778634 0.0063536084)
(0.19973457 0.0067405324 0.0058818875)
(0.20160703 0.0024356624 0.0051487977)
(0.2015901 -0.0024521547 0.0051534771)
(0.19971526 -0.006747387 0.0058836598)
(0.18750316 -0.0089877705 0.0063588281)
(0.15102127 -0.00682203 0.0052955371)
(0.17302675 0.0083916555 0.0068010457)
(0.20988426 0.010206862 0.0079082781)
(0.22068656 0.0075356061 0.0072527858)
(0.22202474 0.0027094907 0.0064251008)
(0.22200908 -0.0027252454 0.0064303826)
(0.22066693 -0.0075423851 0.0072552926)
(0.20985284 -0.010216121 0.0079148738)
(0.17298827 -0.0083988814 0.0068084809)
(0.0094913222 0.0001120574 6.1015919e-06)
(0.015570154 0.00035398297 1.9305315e-05)
(0.018490297 0.00028253155 1.9391536e-05)
(0.019420123 9.6088194e-05 1.3946411e-05)
(0.019411426 -0.00010090812 1.3938921e-05)
(0.018489088 -0.0002821935 1.9432402e-05)
(0.015563826 -0.00035754058 1.9233659e-05)
(0.0094865744 -0.00011121373 6.0757459e-06)
(0.030051949 0.00044425274 0.00014913462)
(0.045983185 0.0011395878 0.00026322193)
(0.053550384 0.00093088629 0.00025907831)
(0.055921036 0.00033219297 0.00020374572)
(0.055899918 -0.00034535457 0.00020466897)
(0.05354448 -0.00093139239 0.00025880288)
(0.045965134 -0.0011488958 0.00026314003)
(0.030035694 -0.00044423529 0.00014903592)
(0.051719668 0.00092964425 0.00045869225)
(0.075359653 0.0020099105 0.00072777303)
(0.086443765 0.0016465863 0.00070853606)
(0.089845053 0.00059990002 0.0005715053)
(0.089815879 -0.00061894826 0.00057393529)
(0.08643276 -0.0016479333 0.0007079128)
(0.075332166 -0.0020230826 0.00072791523)
(0.05169234 -0.00093156751 0.00045870326)
(0.074133222 0.0015745253 0.00094358736)
(0.10357656 0.0029583637 0.0013937841)
(0.11713913 0.0024099948 0.0013431768)
(0.12118794 0.00088754599 0.0011029753)
(0.12115428 -0.00091000864 0.0011072634)
(0.11712346 -0.0024117291 0.00134227)
(0.1035422 -0.0029735808 0.0013944846)
(0.074096506 -0.0015788334 0.00094405956)
(0.096919366 0.0023718406 0.0015963674)
(0.13051324 0.0039636808 0.0022241875)
(0.14560295 0.0031950871 0.0021221564)
(0.14995069 0.0011824241 0.0017691457)
(0.14991531 -0.0012062213 0.0017753736)
(0.14558342 -0.0031967186 0.0021211624)
(0.13047436 -0.0039793812 0.0022258124)
(0.096875538 -0.0023784425 0.0015977108)
(0.11969298 0.0033052672 0.0024026157)
(0.15606645 0.0049929403 0.0031779458)
(0.17180629 0.0039728645 0.0030026867)
(0.17614535 0.0014716289 0.0025373692)
(0.17611026 -0.0014952771 0.0025454408)
(0.17178371 -0.0039741033 0.0030018559)
(0.15602497 -0.005007966 0.0031808597)
(0.11964434 -0.0033137405 0.0024052337)
(0.14205817 0.0043440595 0.0033369197)
(0.18017193 0.0060050617 0.0042078529)
(0.19572902 0.0047148984 0.0039386901)
(0.19979993 0.001743328 0.0033715087)
(0.19976654 -0.0017659066 0.0033812091)
(0.19570415 -0.0047157214 0.0039382861)
(0.18012925 -0.0060186483 0.0042123717)
(0.1420067 -0.0043538475 0.003341178)
(0.16361089 0.0054208075 0.0043338847)
(0.20283545 0.0069661279 0.0052818708)
(0.21735837 0.0053966235 0.0048915421)
(0.2209619 0.001988076 0.0042482072)
(0.22093111 -0.0020090109 0.0042590355)
(0.21733188 -0.0053972758 0.0048920076)
(0.2027926 -0.0069777054 0.0052881103)
(0.16355823 -0.0054313146 0.0043400686)
(0.0090040585 6.9795512e-05 3.4308084e-06)
(0.014920535 0.00022035507 1.2685801e-05)
(0.017964959 0.00016360672 1.3074329e-05)
(0.019066662 4.7782043e-05 9.3136016e-06)
(0.019047345 -5.5978784e-05 9.3667352e-06)
(0.017968061 -0.00015980176 1.3059538e-05)
(0.014914185 -0.0002272005 1.2425932e-05)
(0.0090007074 -6.7335399e-05 3.2439346e-06)
(0.028545691 0.00027753263 8.980204e-05)
(0.044145581 0.00071696548 0.00017248327)
(0.052130058 0.00056388672 0.00017536262)
(0.054994376 0.00018591264 0.00013624907)
(0.05494817 -0.00020816187 0.00013831143)
(0.052132203 -0.00055674096 0.00017404067)
(0.044126829 -0.00073424111 0.00017120237)
(0.028531036 -0.00027592097 8.8372837e-05)
(0.049188902 0.00058415807 0.00028045053)
(0.072474839 0.0012774998 0.00047837603)
(0.084305884 0.0010285151 0.00048015317)
(0.088499784 0.00035809205 0.00038266363)
(0.088436596 -0.0003902416 0.00038787883)
(0.084303606 -0.0010195544 0.00047710222)
(0.0724457 -0.0013014058 0.00047593475)
(0.049162046 -0.00058592468 0.00027732297)
(0.070611197 0.00099691406 0.00058306233)
(0.099812398 0.0019020231 0.00091912764)
(0.11447909 0.0015461059 0.0009115065)
(0.11959374 0.00055587903 0.00073982692)
(0.11952145 -0.00059370362 0.00074884274)
(0.11447092 -0.0015357731 0.00090666197)
(0.099775299 -0.001929063 0.00091583612)
(0.070573168 -0.0010031514 0.00057835564)
(0.092483146 0.0015151368 0.00099571739)
(0.12606695 0.0025808165 0.0014722128)
(0.14263325 0.0021003856 0.0014431285)
(0.14828897 0.00076980109 0.0011898655)
(0.14821356 -0.00080968932 0.0012028042)
(0.14261887 -0.0020887415 0.0014368394)
(0.12602419 -0.0026080316 0.0014686935)
(0.092436042 -0.0015258332 0.00098997898)
(0.1144676 0.0021325323 0.0015123685)
(0.15116385 0.0032961098 0.0021130814)
(0.16875309 0.0026721968 0.0020482844)
(0.17460468 0.00098988824 0.0017133444)
(0.17453043 -0.0010291975 0.0017299916)
(0.16873275 -0.0026593626 0.0020411057)
(0.15111723 -0.0033212931 0.0021101386)
(0.11441377 -0.0021469292 0.0015063732)
(0.13621854 0.0028340139 0.0021205173)
(0.17506244 0.0040239363 0.0028140806)
(0.19282612 0.0032414907 0.0026987843)
(0.19857002 0.0012065458 0.0022892397)
(0.19849988 -0.0012435699 0.0023091509)
(0.19280036 -0.0032278419 0.0026913651)
(0.17501327 -0.0040456022 0.0028125579)
(0.13616012 -0.0028510058 0.0021151633)
(0.15737987 0.0035799447 0.0027834361)
(0.19778238 0.0047436868 0.0035586309)
(0.21483929 0.0037891906 0.0033702585)
(0.22022657 0.0014115023 0.0029039453)
(0.22016241 -0.0014451199 0.0029260794)
(0.21480883 -0.0037755002 0.0033637512)
(0.1977316 -0.0047606974 0.0035590877)
(0.15731865 -0.0035983871 0.0027798395)
(0.0086995265 4.3571939e-05 1.8263719e-06)
(0.014502508 0.00013520653 8.4958603e-06)
(0.017605371 8.5312582e-05 8.9740789e-06)
(0.018808948 7.1707026e-06 6.6936153e-06)
(0.018768378 -2.3111707e-05 6.6972769e-06)
(0.017619889 -7.0753807e-05 8.7580884e-06)
(0.014501416 -0.00014768095 7.9111865e-06)
(0.0087036936 -3.6755451e-05 1.3333513e-06)
(0.027603105 0.00017138012 5.4191107e-05)
(0.042956876 0.00044616871 0.00011382248)
(0.051155087 0.00031781929 0.00012066298)
(0.05432155 6.5692289e-05 9.4560928e-05)
(0.054224599 -0.00010907167 9.8843596e-05)
(0.051180839 -0.00028653732 0.00011541791)
(0.042949892 -0.00047658417 0.00010789287)
(0.027605792 -0.00016472049 4.8774145e-05)
(0.047601096 0.00036398748 0.00017143126)
(0.070597916 0.00080563816 0.00031521596)
(0.08283249 0.00060880848 0.00033011039)
(0.087525136 0.00016223847 0.00026436399)
(0.087392708 -0.0002256977 0.00027552461)
(0.082858329 -0.00056777811 0.0003184389)
(0.070584267 -0.00084686542 0.00030299165)
(0.047597225 -0.00036303511 0.00015824515)
(0.068391877 0.0006292449 0.00035934264)
(0.097345083 0.0012164084 0.00060590247)
(0.11263485 0.0009518635 0.00062671287)
(0.11843905 0.00028967382 0.00051022316)
(0.11828751 -0.00036564299 0.0005298079)
(0.11265412 -0.00090525822 0.00060853987)
(0.097324797 -0.0012624704 0.00058799145)
(0.068379287 -0.00063624519 0.00033722738)
(0.089670396 0.00096932641 0.00061774339)
(0.12312457 0.001674554 0.00097212628)
(0.14055665 0.0013364089 0.00099315777)
(0.1470827 0.00043977537 0.00082053149)
(0.14692434 -0.00052157027 0.00084895314)
(0.14056578 -0.0012868464 0.00096979318)
(0.1230979 -0.0017204432 0.00095023025)
(0.089648769 -0.00098477134 0.00058770164)
(0.11112729 0.0013829698 0.0009448547)
(0.14787976 0.0021702896 0.0013992665)
(0.16659235 0.0017492357 0.0014123106)
(0.17347957 0.00060384653 0.0011831287)
(0.17332328 -0.00068627767 0.0012200433)
(0.16658976 -0.0016986308 0.0013856326)
(0.14784687 -0.0022122618 0.0013756601)
(0.11109708 -0.0014059018 0.000908949)
(0.13244664 0.0018632978 0.0013353856)
(0.17158628 0.0026891737 0.0018711049)
(0.19073656 0.0021758449 0.001866257)
(0.19765995 0.00077347934 0.0015850391)
(0.19751186 -0.00085284467 0.0016295255)
(0.19072193 -0.0021259184 0.0018382608)
(0.17154726 -0.0027246883 0.0018482653)
(0.13240854 -0.001891987 0.0012962693)
(0.15330298 0.0023863356 0.0017692754)
(0.19427557 0.0032185236 0.0023795027)
(0.2129797 0.0026015225 0.0023385473)
(0.21966284 0.00094131139 0.0020174441)
(0.21952694 -0.0010148247 0.0020670974)
(0.2129536 -0.0025543542 0.0023122303)
(0.19423065 -0.0032454743 0.0023593868)
(0.15325777 -0.0024191548 0.0017307551)
(0.0084972603 2.2044582e-05 1.838621e-06)
(0.014238271 7.0184637e-05 5.9776742e-06)
(0.017360817 1.8065234e-05 6.0805982e-06)
(0.018608911 -4.4345532e-05 4.9120208e-06)
(0.01851412 1.3715563e-05 4.7847887e-06)
(0.017419186 2.3304844e-05 3.881467e-06)
(0.014285193 -8.951671e-05 7.6307968e-07)
(0.0085406555 -1.1107952e-05 -4.0950531e-07)
(0.026991056 8.3486042e-05 3.5376487e-05)
(0.042207292 0.00024332626 7.523082e-05)
(0.050492712 0.00011251307 8.1814071e-05)
(0.053803247 -7.6014665e-05 6.5313855e-05)
(0.053576079 -8.2902748e-06 6.8549766e-05)
(0.050602092 -1.9134785e-05 6.2161416e-05)
(0.042269476 -0.0002870373 5.2861834e-05)
(0.027088178 -7.5176163e-05 1.8229259e-05)
(0.046588553 0.00018747377 0.00010745096)
(0.069413954 0.00045636993 0.00020479534)
(0.081831016 0.00026571659 0.00022302343)
(0.086778661 -5.6055321e-05 0.00018060315)
(0.086466611 -6.9593859e-05 0.00019344446)
(0.08194833 -0.00014115787 0.00018309448)
(0.069476503 -0.00051483901 0.00016629667)
(0.046708543 -0.00019098324 6.8282002e-05)
(0.066992455 0.00034290372 0.00022024067)
(0.09578415 0.00071343027 0.0003898959)
(0.11137877 0.00047381772 0.00042233504)
(0.11755812 7.0216127e-06 0.00034683986)
(0.11719868 -0.00016089272 0.00037290151)
(0.11147882 -0.00033299917 0.0003649983)
(0.095839519 -0.00077726464 0.00033556923)
(0.067115536 -0.00036240499 0.00015642382)
(0.087906762 0.00055486499 0.00037467161)
(0.12125331 0.0010131407 0.000621912)
(0.13913741 0.00072879153 0.00066852921)
(0.14616386 0.00010339129 0.00055622252)
(0.14578594 -0.00027357576 0.00059828471)
(0.13920799 -0.00058201188 0.00059891504)
(0.12129549 -0.0010748734 0.00055474081)
(0.088020178 -0.00059024268 0.00028707801)
(0.10903512 0.00082490818 0.00057076414)
(0.14577607 0.0013497037 0.0008923047)
(0.16510866 0.0010199872 0.00095072312)
(0.17262148 0.0002231132 0.00080100078)
(0.17224653 -0.00039994723 0.00086063906)
(0.16514585 -0.00087438803 0.00087405893)
(0.14580083 -0.0014043457 0.00081743675)
(0.10913086 -0.00087351173 0.00046315197)
(0.13007811 0.0011500598 0.00080670197)
(0.16933977 0.0017139573 0.0011919987)
(0.18929374 0.0013354308 0.0012575067)
(0.19696216 0.00035700416 0.0010729808)
(0.1966055 -0.00053306538 0.0011500599)
(0.18929868 -0.0011963526 0.0011785854)
(0.1693446 -0.0017583792 0.0011156154)
(0.13015146 -0.0012087579 0.00068530236)
(0.15072926 0.0015150888 0.001072329)
(0.19198618 0.0020978846 0.0015181358)
(0.21168839 0.0016625683 0.0015775563)
(0.21922417 0.00049734527 0.001366589)
(0.21889622 -0.0006665284 0.0014573231)
(0.21166493 -0.0015350961 0.0015028063)
(0.19197043 -0.0021290975 0.0014456976)
(0.15077803 -0.0015821066 0.00094724918)
(0.0083479724 4.2025733e-06 -7.8517739e-06)
(0.014078459 3.1660935e-05 4.5759559e-06)
(0.017217165 -6.2298937e-05 3.3945035e-06)
(0.018432552 -0.00014964719 4.127935e-06)
(0.01831823 9.0691185e-05 -8.945684e-06)
(0.017360453 0.00021772955 1.4102876e-06)
(0.014211686 -0.00012254497 8.5168016e-06)
(0.0084822037 -6.3081821e-05 -6.3836246e-06)
(0.026568536 4.5257163e-05 6.1746788e-06)
(0.041769823 0.0001034799 4.7067848e-05)
(0.050101452 -0.00012573924 4.7459009e-05)
(0.053359662 -0.00034746069 3.924934e-05)
(0.053014535 0.00017047262 -5.263659e-06)
(0.050329734 0.00049302282 -0.00012937873)
(0.041992384 -8.6466222e-05 3.6014758e-05)
(0.026896956 4.6574991e-05 -1.9982636e-05)
(0.045923651 0.00010621466 7.5444728e-05)
(0.068736631 0.00018933553 0.00012016365)
(0.081236501 -0.0001203265 0.0001295782)
(0.08615214 -0.00045259552 0.00010609218)
(0.085612967 0.00016973045 5.8650299e-05)
(0.081464121 0.00056097497 -0.0001581505)
(0.069003771 -0.00019665902 5.3419308e-05)
(0.046365772 1.13376e-05 -1.8680066e-05)
(0.066108363 0.00018025924 0.00014361941)
(0.094900639 0.00030794575 0.00021785816)
(0.11062885 -4.6332967e-05 0.00024637447)
(0.11682919 -0.00047978308 0.0002035223)
(0.11614413 0.00011395732 0.00018245003)
(0.11081495 0.00052511227 -8.9512365e-05)
(0.095175154 -0.00031713213 9.2736771e-05)
(0.066604798 -8.2479353e-05 -1.4382878e-05)
(0.086825116 0.00028212517 0.00022082503)
(0.1201989 0.00046416271 0.00033747509)
(0.13828582 8.9191507e-05 0.00039173855)
(0.14541065 -0.00044506519 0.00032830679)
(0.14463547 2.1973701e-05 0.00035448711)
(0.13841056 0.00039303366 5.6186942e-05)
(0.12045155 -0.00046112142 0.00016891317)
(0.087330885 -0.00021229582 4.1566343e-06)
(0.1077796 0.00042106907 0.00031091837)
(0.1445916 0.00065813278 0.00047605473)
(0.16421647 0.00027558209 0.00055964546)
(0.1719215 -0.00036415638 0.00047625579)
(0.17110978 -9.1926847e-05 0.00055999369)
(0.1642734 0.00018589896 0.00025306245)
(0.14480133 -0.0006385794 0.0002836307)
(0.10826091 -0.00038068594 4.6933931e-05)
(0.12867817 0.00060141089 0.00041644168)
(0.16807422 0.0008859676 0.00062992175)
(0.18842956 0.00050077927 0.00074425605)
(0.19639309 -0.00025111177 0.00064176016)
(0.19558981 -0.00021672543 0.00078527301)
(0.18842174 -7.6311109e-05 0.00047932096)
(0.16822779 -0.00085118071 0.00043354286)
(0.12911068 -0.00058988111 0.00012113469)
(0.14922362 0.00081873526 0.00053763088)
(0.19069754 0.0011438588 0.00080018526)
(0.21092758 0.00075172555 0.00093821963)
(0.21886373 -0.00011711997 0.00082180755)
(0.21810323 -0.00034338564 0.0010143783)
(0.21086483 -0.00037659168 0.0007210656)
(0.19078851 -0.0010947896 0.00061651732)
(0.14959136 -0.00083843849 0.00023546141)
(0.0081393684 -8.1644442e-05 -1.4573786e-05)
(0.014049132 5.0422234e-05 -2.1659301e-06)
(0.017228223 -0.00018419315 -8.0730398e-07)
(0.018286953 -0.00030423223 -3.5810702e-06)
(0.018118039 0.00024005379 -8.3011436e-05)
(0.020140046 0.00044931325 -0.0002597461)
(0.014273453 -0.00019175061 1.9677765e-05)
(0.0085723958 -5.9055205e-05 -1.3223284e-05)
(0.026271448 8.4429419e-06 -0.0001339252)
(0.041729447 9.854148e-05 -1.3645562e-05)
(0.050108859 -0.0004751272 -8.0006841e-06)
(0.052977006 -0.00080294428 -1.1924684e-05)
(0.052116085 0.00046178911 -0.00073415903)
(0.052128404 0.0010777049 -0.00058409802)
(0.042428068 -0.00022323874 -7.9944235e-06)
(0.027117211 -3.3604998e-05 -7.8022748e-05)
(0.045626847 0.00012829635 -9.7848332e-05)
(0.068689741 9.517635e-05 -1.8557966e-05)
(0.081216477 -0.0006730056 -8.5024188e-06)
(0.085593082 -0.0011625765 -1.4371741e-05)
(0.084052803 0.00054508907 -0.00099354635)
(0.082116289 0.0014847279 -0.00057270901)
(0.069614971 -4.6185285e-05 -9.2635161e-05)
(0.046697066 2.9717451e-05 -0.00016360231)
(0.065831462 0.00022293811 -8.8824379e-05)
(0.094833978 8.8681653e-05 -2.6622366e-05)
(0.11056567 -0.00077320572 3.644653e-06)
(0.11615138 -0.0013853813 -1.9859288e-07)
(0.1141233 0.00053283589 -0.00095556867)