/*--------------------------------*- C++ -*----------------------------------*\
  =========                 |
  \\      /  F ield         | OpenFOAM: The Open Source CFD Toolbox
   \\    /   O peration     | Website:  https://openfoam.org
    \\  /    A nd           | Version:  13
     \\/     M anipulation  |
\*---------------------------------------------------------------------------*/
FoamFile
{
    format      ascii;
    class       surfaceScalarField;
    location    "0.02";
    object      alphaPhi.water;
}
// * * * * * * * * * * * * * * * * * * * * * * * * * * * * * * * * * * * * * //

dimensions      [0 3 -1 0 0 0 0];

internalField   nonuniform List<scalar> 
150720
(
0
0
0
0
0
0
0
0
0
0
0
0
0
0
0
0
0
0
0
0
0
0
0
0
0
0
0
0
0
0
0
0
0
0
0
0
0
0
0
0
0
0
0
0
0
0
0
0
0
0
0
0
0
0
0
0
0
0
0
0
0
0
0
0
0
0
0
0
0
0
0
0
0
0
0
0
0
0
0
0
0
0
0
0
0
0
0
0
0
0
0
0
0
0
0
0
0
0
0
0
0
0
0
0
0
0
0
0
0
0
0
0
0
0
0
0
0
0
0
0
0
0
0
0
0
0
0
0
0
0
0
0
0
0
0
0
0
0
0
0
0
0
0
0
0
0
0
0
0
0
0
0
0
0
0
0
0
0
0
0
0
0
0
0
0
0
0
0
0
0
0
0
0
0
0
0
0
0
0
0
0
0
0
0
0
0
0
0
0
0
0
0
0
0
0
0
0
0
0
0
0
0
0
0
0
0
0
0
0
0
0
0
0
0
0
0
0
0
0
0
0
0
0
0
0
0
0
0
0
0
0
0
0
0
0
0
0
0
0
0
0
0
0
0
0
0
0
0
0
0
0
0
0
0
0
0
0
0
0
0
0
0
0
0
0
0
0
0
0
0
0
0
0
0
0
0
0
0
0
0
0
0
0
0
0
0
0
0
0
0
0
0
0
0
0
0
0
0
0
0
0
0
0
0
0
0
0
0
0
0
0
0
0
0
0
0
0
0
0
0
0
0
0
0
0
0
0
0
0
0
0
0
0
0
0
0
0
0
0
0
0
0
0
0
0
0
0
0
0
0
0
0
0
0
0
0
0
0
0
0
0
0
0
0
0
0
0
0
0
0
0
0
0
0
0
0
0
0
0
0
0
0
0
0
0
0
0
0
0
0
0
0
0
0
0
0
0
0
0
0
0
0
0
0
0
0
0
0
0
0
0
0
0
0
0
0
0
0
0
0
0
0
0
0
0
0
0
0
0
0
0
0
0
0
0
0
0
0
0
0
0
0
0
0
0
0
0
0
0
0
0
0
0
0
0
0
0
0
0
0
0
0
0
0
0
0
0
0
0
0
0
0
0
0
0
0
0
0
0
0
0
0
0
0
0
0
0
0
0
0
0
0
0
0
0
0
0
0
0
0
0
0
0
0
0
0
0
0
0
0
0
0
0
0
0
0
0
0
0
0
0
0
0
0
0
0
0
0
0
0
0
0
0
0
0
0
0
0
0
0
0
0
0
0
0
0
0
0
0
0
0
0
0
0
0
0
0
0
0
0
0
0
0
0
0
0
0
0
0
0
0
0
0
0
0
0
0
0
0
0
0
0
0
0
0
0
0
0
0
0
0
0
0
0
0
0
0
0
0
0
0
0
0
0
0
0
0
0
0
0
0
0
0
0
0
0
0
0
0
0
0
0
0
0
0
0
0
0
0
0
0
0
0
0
0
0
0
0
0
0
0
0
0
0
0
0
0
0
0
0
0
0
0
0
0
0
0
0
0
0
0
0
0
0
0
0
0
0
0
0
0
0
0
0
0
0
0
0
0
0
0
0
0
0
0
0
0
0
0
0
0
0
0
0
0
0
0
0
0
0
0
0
0
0
0
0
0
0
0
0
0
0
0
0
0
0
0
0
0
0
0
0
0
0
0
0
0
0
0
0
0
0
0
0
0
0
0
0
0
0
0
0
0
0
0
0
0
0
0
0
0
0
0
0
0
0
0
0
0
0
0
0
0
0
0
0
0
0
0
0
0
0
0
0
0
0
0
0
0
0
0
0
0
0
0
0
0
0
0
0
0
0
0
0
0
0
0
0
0
0
0
0
0
0
0
0
0
0
0
0
0
0
0
0
0
0
0
0
0
0
0
0
0
0
0
0
0
0
0
0
0
0
0
0
0
0
0
0
0
0
0
0
0
0
0
0
0
0
0
0
0
0
0
0
0
0
0
0
0
0
0
0
0
0
0
0
0
0
0
0
0
0
0
0
0
0
0
0
0
0
0
0
0
0
0
0
0
0
0
0
0
0
0
0
0
0
0
0
0
0
0
0
0
0
0
0
0
0
0
0
0
0
0
0
0
0
0
0
0
0
0
0
0
0
0
0
0
0
0
0
0
0
0
0
0
0
0
0
0
0
0
0
0
0
0
0
0
0
0
0
0
0
0
0
0
0
0
0
0
0
0
0
0
0
0
0
0
0
0
0
0
0
0
0
0
0
0
0
0
0
0
0
0
0
0
0
0
0
0
0
0
0
0
0
0
0
0
0
0
0
0
0
0
0
0
0
0
0
0
0
0
0
0
0
0
0
0
0
0
0
0
0
0
0
0
0
0
0
0
0
0
0
0
0
0
0
0
0
0
0
0
0
0
0
0
0
0
0
0
0
0
0
0
0
0
0
0
0
0
0
0
0
0
0
0
0
0
0
0
0
0
0
0
0
0
0
0
0
0
0
0
0
0
0
0
0
0
0
0
0
0
0
0
0
0
0
0
0
0
0
0
0
0
0
0
0
0
0
0
0
0
0
0
0
0
0
0
0
0
0
0
0
0
0
0
0
0
0
0
0
0
0
0
0
0
0
0
0
0
0
0
0
0
0
0
0
0
0
0
0
0
0
0
0
0
0
0
0
0
0
0
0
0
0
0
0
0
0
0
0
0
0
0
0
0
0
0
0
0
0
0
0
0
0
0
0
0
0
0
0
0
0
0
0
0
0
0
0
0
0
0
0
0
0
0
0
0
0
0
0
0
0
0
0
0
0
0
0
0
0
0
0
0
0
0
0
0
0
0
0
0
0
0
0
0
0
0
0
0
0
0
0
0
0
0
0
0
0
0
0
0
0
0
0
0
0
0
0
0
0
0
0
0
0
0
0
0
0
0
0
0
0
0
0
0
0
0
0
0
0
0
0
0
0
0
0
0
0
0
0
0
0
0
0
0
0
0
0
0
0
0
0
0
0
0
0
0
0
0
0
0
0
0
0
0
0
0
0
0
0
0
0
0
0
0
0
0
0
0
0
0
0
0
0
0
0
0
0
0
0
0
0
0
0
0
0
0
0
0
0
0
0
0
0
0
0
0
0
0
0
0
0
0
0
0
0
0
0
0
0
0
0
0
0
0
0
0
0
0
0
0
0
0
0
0
0
0
0
0
0
0
0
0
0
0
0
0
0
0
0
0
0
0
0
0
0
0
0
0
0
0
0
0
0
0
0
0
0
0
0
0
0
0
0
0
0
0
0
0
0
0
0
0
0
0
0
0
0
0
0
0
0
0
0
0
0
0
0
0
0
0
0
0
0
0
0
0
0
0
0
0
0
0
0
0
0
0
0
0
0
0
0
0
0
0
0
0
0
0
0
0
0
0
0
0
0
0
0
0
0
0
0
0
0
0
0
0
0
0
0
0
0
0
0
0
0
0
0
0
0
0
0
0
0
0
0
0
0
0
0
0
0
0
0
0
0
0
0
0
0
0
0
0
0
0
0
0
0
0
0
0
0
0
0
0
0
0
0
0
0
0
0
0
0
0
0
0
0
0
0
0
0
0
0
0
0
0
0
0
0
0
0
0
0
0
0
0
0
0
0
0
0
0
0
0
0
0
0
0
0
0
0
0
0
0
0
0
0
0
0
1.2827211e-37
1.0373684e-38
2.6298982e-35
3.8908934e-38
9.318449e-43
1.2521078e-42
1.2826993e-37
4.9532401e-48
1.0172873e-47
9.3182977e-43
2.463157e-53
3.5206469e-53
4.9531803e-48
7.8479723e-59
1.6321682e-58
2.4631329e-53
-3.7693656e-45
3.8964895e-50
3.7693267e-45
-1.9324591e-39
1.8914132e-44
1.9324364e-39
6.4940215e-40
2.691559e-37
6.6829874e-40
2.0279274e-43
9.1123628e-44
1.037339e-38
-6.9865118e-49
3.4710228e-47
5.331656e-47
1.4548126e-42
8.0673921e-52
1.8544578e-51
4.488044e-47
1.1462729e-56
2.3964802e-56
8.4191025e-52
6.1438966e-62
3.1424353e-61
1.162557e-56
-5.4020482e-45
2.1462803e-49
5.4018725e-45
-6.4292059e-40
2.3601741e-44
6.429105e-40
5.5403275e-40
2.7420225e-35
-3.2105052e-35
3.2012023e-48
2.4489456e-48
9.1117978e-44
-2.3278023e-52
3.2128509e-30
3.3553755e-30
3.5030968e-28
6.4414909e-30
1.7714762e-29
1.9061185e-27
6.8452903e-33
2.1422276e-32
3.4922304e-30
2.1858298e-38
4.2336563e-37
6.844845e-33
-3.8545752e-48
1.8929336e-42
2.1856405e-38
-1.931466e-43
1.7642982e-47
2.1672684e-43
2.6501849e-43
8.6657663e-39
-8.1121917e-39
1.3106613e-52
1.3964113e-52
2.4490514e-48
-6.5385086e-56
4.9133151e-30
1.0573016e-29
4.3438429e-28
1.1194791e-31
2.2864728e-33
1.5051079e-29
3.4240502e-36
1.4708076e-35
1.3335206e-31
-6.2196321e-48
4.1143243e-40
3.8470044e-36
-2.8899123e-51
2.8248648e-46
1.8926449e-42
-7.6430953e-47
1.3395907e-50
9.4058672e-47
1.4034811e-46
2.1925331e-42
-1.9277314e-42
1.0417198e-56
1.3967526e-56
1.3961677e-52
-2.415729e-59
8.525901e-32
3.4719824e-33
1.4083737e-29
2.2092441e-34
4.5166096e-34
5.0878463e-32
6.8504947e-39
3.9602797e-38
2.3558603e-34
-3.8707922e-51
1.1928083e-42
7.2607343e-39
-2.4004784e-54
6.3601118e-50
2.8241901e-46
-3.8409404e-50
1.101307e-53
5.0560687e-50
8.5561977e-50
7.6107255e-46
-6.2084841e-46
6.97082e-57
2.1846905e-60
6.9945335e-57
-1.1927736e-62
2.2644948e-35
3.9214883e-35
3.4101226e-33
6.5029108e-38
2.3777294e-37
4.740031e-34
3.2586181e-42
2.4567757e-41
1.0460408e-37
-1.7637128e-54
1.0289392e-45
4.4503974e-42
-2.3252253e-57
1.9775003e-53
6.3579581e-50
-2.4777715e-53
1.0445453e-56
3.4247789e-53
6.2956068e-53
3.5773839e-49
-2.7226415e-49
2.7722945e-64
4.9195571e-64
2.183929e-60
-7.660584e-66
8.0198315e-39
2.1374737e-38
3.9185488e-35
2.5251078e-41
9.6105743e-41
2.4567142e-37
1.610159e-45
1.5359737e-44
4.9801865e-41
-8.8056509e-58
8.0607293e-49
2.6382921e-45
-2.6270988e-60
7.9616869e-57
1.9766163e-53
-2.0050367e-56
1.1482212e-59
2.8677932e-56
5.585056e-56
2.2029449e-52
-1.5741433e-52
7.6235477e-68
4.9173651e-64
-6.1353889e-69
1.4909773e-67
3.5939239e-42
2.1361334e-38
9.8092878e-42
1.2269748e-44
9.9639952e-41
4.7445701e-44
9.1199739e-49
2.7617911e-44
1.0662593e-47
-5.0364434e-61
1.7174101e-48
6.602066e-52
-3.3919765e-63
7.9572421e-57
3.9440206e-60
-1.9649251e-59
2.882215e-59
1.4406109e-62
1.7047166e-55
-1.1469903e-55
5.8283097e-59
8.7047112e-29
-4.003686e-28
9.0839077e-27
5.3670141e-29
8.4829346e-27
-1.6073506e-27
9.0586871e-25
8.3459397e-24
4.6729725e-25
2.5163228e-21
2.8242455e-22
-5.6461303e-23
4.0930671e-20
1.6039955e-25
-8.6927484e-24
9.2671247e-22
3.9859277e-29
-6.9270438e-29
1.5271066e-25
-3.9045669e-42
-1.3272127e-33
8.3845334e-31
-6.1839511e-37
8.8808082e-37
2.4395291e-42
4.4407046e-26
-8.1392532e-25
6.9112225e-24
3.6348942e-27
1.7896471e-25
-1.6123618e-29
2.7846012e-23
7.131712e-23
4.0605125e-24
1.7201666e-20
9.1357112e-22
-4.453452e-31
2.4627863e-19
3.1476066e-23
-1.603237e-27
4.8669702e-21
1.3066695e-28
-1.2945741e-29
3.1475879e-23
-5.9741571e-37
-1.0271283e-32
1.3067589e-28
-8.7550243e-32
8.7576548e-32
-1.0071209e-37
4.4452461e-24
0
6.8480977e-22
-3.6813117e-22
1.2028993e-28
-7.0571206e-33
4.4454627e-24
8.9208265e-29
1.3001636e-29
4.0624376e-24
1.1388124e-31
-3.43464e-27
3.5253077e-27
1.7469886e-29
-5.4603533e-25
5.4441474e-25
1.6473471e-30
-6.5812627e-25
6.5812915e-25
-5.5383282e-32
-7.4739292e-28
7.4908538e-28
-2.7041863e-29
4.1709468e-27
-4.1440478e-27
1.9620006e-29
-4.1824871e-25
4.7312366e-25
-5.4894577e-26
1.9100175e-32
-8.6149176e-30
4.6339187e-28
1.8793808e-31
3.0146106e-34
2.7888818e-29
2.4631139e-26
-1.3719656e-30
4.2982709e-24
6.8104115e-25
-3.9198876e-24
3.3340999e-22
-3.1640748e-28
-1.9687203e-24
2.8653454e-22
-8.0732919e-30
-4.6535564e-26
4.9625903e-25
-2.1541063e-25
7.0241153e-25
-4.8703601e-25
3.6515133e-25
-3.3380521e-34
6.1159636e-23
-1.0123024e-29
2.2008697e-29
-2.036889e-33
3.6513482e-25
1.1266728e-33
5.5882929e-35
2.2040135e-29
9.3401151e-30
-2.1515928e-25
2.1514857e-25
3.2542153e-24
-7.5602407e-24
2.3499957e-21
-3.3598347e-26
-1.0298248e-24
1.1741183e-21
-9.0006482e-26
-1.2045769e-30
1.7284565e-23
-7.8950811e-27
2.0706103e-23
-2.5987551e-24
3.1371394e-36
-3.3765382e-32
3.6011131e-32
-2.5826914e-33
2.3148643e-32
-6.2011636e-29
6.1990207e-29
5.9258467e-27
8.7421737e-28
4.4834117e-25
3.2450349e-24
-3.8555526e-27
3.8793344e-22
2.5228879e-24
-8.4351654e-25
3.6350256e-21
-3.9118013e-30
2.7297745e-26
8.9847506e-22
-5.9812286e-27
-1.24805e-25
1.3078111e-25
-8.5363717e-31
8.6127433e-25
-4.8930997e-26
4.0265543e-32
-2.3962905e-28
2.3955502e-28
-8.9945597e-37
2.5121106e-28
-2.3960998e-28
3.1367812e-26
3.4890444e-28
1.72781e-29
6.1474651e-26
7.5258715e-26
2.1821576e-28
1.8136032e-23
-2.3804426e-27
-2.3751608e-26
2.3984908e-22
-4.8512516e-25
3.5068968e-26
1.583926e-22
-1.2095601e-30
-3.2825996e-27
1.5959717e-22
-2.7499929e-29
1.6239121e-28
-4.7765521e-29
4.8922267e-28
3.5538069e-26
-9.0281977e-37
-4.3031406e-27
7.4784599e-28
1.1599536e-25
-1.3928913e-28
2.915427e-29
6.9134638e-27
7.4899657e-30
4.0747396e-27
1.085966e-24
3.4155333e-28
-8.845519e-27
1.2998055e-23
-1.8551686e-29
-1.3960124e-25
1.45948e-23
1.8953688e-26
-8.8667916e-28
4.258465e-23
2.0646421e-26
7.4619424e-26
-2.2720453e-30
-5.2489242e-28
4.4751268e-29
-1.6647116e-23
1.8463529e-26
1.6642082e-23
-6.3818303e-26
-2.759432e-24
1.3957313e-23
-1.0113193e-22
-1.551957e-22
1.1102313e-20
2.2120357e-21
-2.2860214e-21
2.0591731e-19
1.8797299e-23
-1.9724966e-23
9.4835026e-22
1.7648616e-24
-5.6445488e-20
6.3327657e-20
-6.6847408e-20
6.2713531e-18
3.6371484e-16
-4.5899436e-19
1.9172073e-18
-1.8641639e-23
0
-5.5217369e-24
1.5807016e-21
-1.584678e-21
5.5249765e-24
-9.6073633e-22
7.0415669e-21
6.0560906e-23
-5.2060045e-21
7.8641372e-20
5.752639e-21
-1.4824174e-20
5.6024246e-19
8.2221668e-21
-3.2885483e-22
1.2231646e-21
0
0
2.7938055e-18
-2.6078505e-18
-8.5599604e-18
1.012587e-15
-8.485456e-19
3.0232414e-17
-1.7346572e-23
0
-8.7443609e-23
1.2101065e-21
0
2.2486654e-22
-1.9310141e-21
1.1805965e-19
1.0805188e-21
-3.7682143e-24
6.5431555e-19
2.3484039e-20
-7.5643839e-20
3.3493488e-18
2.5854406e-21
-2.2359004e-21
2.3143633e-20
0
0
8.1800198e-19
-2.9590224e-19
-1.1716514e-21
2.6117626e-16
-2.3801349e-19
1.8549441e-17
-9.7772308e-21
1.6881061e-22
-1.647397e-22
4.4697448e-20
0
2.1524903e-22
-4.5922247e-22
1.8111528e-19
5.4880449e-26
-4.0054865e-21
4.2168335e-21
4.1512996e-20
-1.6123067e-20
4.9458092e-18
3.8118846e-24
-1.5544297e-21
9.5001975e-20
2.1778204e-24
-3.6734584e-22
1.1923652e-21
-1.1741015e-21
-2.9153157e-26
5.6052484e-24
-3.950847e-25
2.4039835e-19
-3.8448754e-22
5.341028e-23
-1.4644465e-22
9.0764308e-21
-1.7165532e-21
5.1670417e-23
-4.9067145e-23
1.8533151e-20
1.0361664e-21
-4.0867029e-24
1.932342e-19
6.0043747e-21
-3.9019167e-22
1.3213965e-18
7.3314248e-23
-1.7121758e-21
6.221884e-20
1.3045062e-23
-5.2758118e-22
6.5170358e-21
-5.1089752e-27
-5.7099457e-24
3.7130688e-23
-4.127455e-26
3.7429785e-23
-1.5748087e-23
5.5034569e-24
-1.2487009e-23
6.1096292e-21
-3.9421662e-21
3.6203554e-24
-4.8950263e-25
6.4318017e-22
1.7448091e-27
-2.1399283e-26
4.5678435e-25
4.4004878e-26
-6.173069e-24
4.3236486e-24
2.6762168e-22
-2.7607037e-22
5.698441e-20
1.0306161e-23
-2.4745263e-22
8.3034914e-21
-6.0273949e-27
-1.2148022e-23
1.4731187e-22
-8.36209e-25
1.3948245e-23
-1.1467655e-23
2.1976861e-25
-9.163244e-25
2.3319426e-22
-1.4917724e-24
5.2379701e-27
-3.6662756e-26
4.5564929e-24
3.6222843e-27
-2.5444344e-27
1.4570477e-24
2.5236286e-24
-5.2970547e-25
4.2535073e-22
1.9180062e-23
-1.6011023e-23
6.8343548e-21
-8.0255068e-26
-3.2154795e-23
3.8421047e-21
-1.3145284e-25
-3.602039e-23
2.7004455e-22
-1.1109226e-23
1.549445e-23
-2.4237895e-25
3.9470631e-26
2.0302931e-23
-2.4133257e-25
-5.6787282e-25
1.0266314e-27
1.4414008e-24
-1.0982445e-26
4.659824e-28
1.5374743e-25
-2.2737164e-28
1.5431821e-25
2.9395968e-23
-1.4426265e-28
1.3578004e-24
5.2217598e-22
-3.6100962e-26
-1.2779167e-24
8.0242646e-22
-3.0863265e-24
-2.519852e-24
1.1388722e-21
-3.6499649e-23
2.552388e-22
-3.4021874e-24
-1.3179183e-23
-1.7306998e-27
-1.1142364e-25
1.4028222e-25
7.1772119e-28
-5.1840136e-23
-2.2387528e-22
2.8968095e-22
-5.7226502e-22
-1.0186822e-21
6.0088607e-21
2.3631368e-21
-3.3625071e-21
4.3320601e-20
2.9893713e-23
-1.8674857e-22
1.2989986e-21
-3.4807946e-18
-1.381409e-21
6.4081714e-19
0
-4.6841481e-17
6.7239339e-17
-1.2816844e-18
1.3748561e-18
-1.5951329e-20
-2.8619911e-23
-3.2306436e-22
1.859639e-21
7.2644974e-23
-3.6283772e-22
-1.6902415e-21
1.4405859e-20
-6.7861762e-22
-2.3340779e-22
8.2446839e-20
2.3455859e-21
-2.2032506e-22
1.6852516e-19
2.4124732e-23
-8.1829244e-22
2.6938452e-21
2.8972324e-23
-5.7178755e-22
2.7922524e-18
-5.9661703e-19
-4.5400275e-17
1.3520037e-15
-4.4175494e-18
3.9739955e-17
-2.790683e-19
0
-1.7054852e-20
8.4742788e-21
-2.0968979e-27
-7.0817393e-23
-1.0850926e-19
3.6506749e-19
-7.7247011e-23
-7.1168025e-20
7.2856675e-19
1.5891341e-22
-1.6817621e-19
3.5098831e-18
6.8480944e-23
-1.135313e-22
1.5242312e-20
0
-3.888857e-24
8.1750961e-19
-1.160903e-18
-1.0171917e-21
1.2639697e-15
-1.5697e-18
3.8617257e-17
-3.6233754e-20
4.6958697e-22
0
6.1881452e-19
-1.1263039e-18
-7.2079608e-21
-4.7102781e-20
2.1939881e-18
-1.424005e-20
-1.7368941e-19
8.3055762e-18
4.0404928e-20
-2.0492016e-19
2.8560645e-18
1.7012705e-23
-1.2221648e-20
1.4750543e-19
1.6811525e-25
-1.7638353e-23
1.2273759e-21
-2.5057743e-21
-4.0906073e-21
5.585244e-21
-8.3890585e-19
3.4269581e-19
-1.6565923e-21
0
-3.5170757e-21
3.7327533e-20
0
-7.1323893e-21
-1.8918851e-21
2.6094164e-19
-6.6649439e-21
-1.6502142e-25
2.9885431e-18
1.4447467e-20
-3.0532259e-22
2.6499751e-18
5.8396156e-22
-1.4533442e-20
9.0237542e-20
1.3450837e-24
-4.1259874e-23
7.0991252e-21
-4.85896e-20
-5.5566821e-18
5.6013028e-18
-1.3775596e-18
8.0139396e-18
0
0
-5.5317325e-22
1.0422197e-19
0
0
-1.0622223e-23
3.2499347e-22
-8.1877644e-27
-8.6263081e-24
2.389369e-24
3.9345365e-26
-3.0758406e-22
3.4920488e-24
1.214128e-21
-7.2645563e-21
7.8350261e-20
4.5923705e-24
-6.4072092e-22
1.0239551e-20
-7.7158076e-20
-3.1285994e-24
5.1671267e-17
-4.0228421e-23
1.515888e-17
-8.1096409e-22
3.9562968e-23
-8.5603093e-23
4.894572e-21
0
2.2706863e-25
-1.7134153e-24
1.7705478e-22
-2.7810453e-25
-4.467942e-24
1.4781248e-22
4.9640901e-23
-5.0163243e-23
3.9982771e-21
3.576536e-22
-5.4278657e-22
3.0310056e-20
3.5570617e-23
-2.6011267e-22
1.1433607e-20
-1.1253796e-25
-2.3654413e-22
5.3730293e-22
-3.5167307e-23
1.6851379e-23
-1.3992217e-24
1.7797281e-24
8.5854577e-22
-2.6515805e-23
-2.5156172e-23
7.7051262e-26
2.8785727e-23
-1.2508646e-24
8.8992769e-26
7.4253711e-23
-4.515369e-25
4.8554534e-24
6.6519949e-22
-3.2773938e-25
2.7386347e-23
2.7923187e-21
-1.0469223e-24
9.4349219e-24
2.3000176e-21
-6.9930884e-23
-3.8341536e-24
1.8921109e-21
-2.9110172e-22
2.896582e-22
-5.7078552e-24
-7.1236586e-23
-6.3294178e-17
-1.996615e-16
1.7835331e-15
1.5789943e-15
-8.2111849e-20
-4.0749966e-20
2.9767143e-16
-1.4731038e-23
-8.0115124e-20
5.5220534e-22
9.2820474e-23
-1.6276844e-27
3.7877063e-20
5.0759827e-23
-6.3614594e-22
1.3767759e-21
-1.3563253e-17
8.9031721e-14
5.1831309e-14
-1.2856955e-18
-2.2234401e-18
1.3428565e-17
-3.2338648e-18
1.403229e-18
-4.3403668e-20
0
-3.4499461e-17
5.9488283e-16
0
-5.2852247e-20
-1.929494e-21
3.401494e-20
-9.7435929e-22
-3.1325509e-18
2.7430426e-18
4.2501424e-21
-2.071066e-17
2.0873576e-17
4.4652024e-23
-1.0613335e-20
1.6298921e-20
-1.7803057e-15
7.8437219e-14
1.4796254e-13
-6.9755432e-18
-4.291194e-16
5.6046907e-18
-9.5250588e-19
1.7891579e-17
-7.9842694e-19
-1.5403303e-22
-9.7774899e-21
4.0377454e-19
-3.4894236e-17
-1.5803505e-18
-2.5076579e-19
2.1923188e-18
-3.8210679e-18
-1.5253918e-17
1.0307817e-16
4.0644273e-18
-1.5359603e-18
5.2018911e-16
0
-2.2770756e-19
4.2969842e-18
-2.0354656e-15
4.1991263e-15
1.9284038e-13
-3.7613863e-17
-8.5311186e-16
2.2254077e-15
-1.3500677e-21
5.3481768e-20
-1.1981278e-21
-2.2815616e-21
-1.4842677e-20
3.5252003e-19
-6.0768661e-20
-1.2174041e-18
-1.1820976e-19
3.7345871e-18
0
-1.7208581e-18
8.1508559e-17
-3.7790565e-22
-2.5171109e-21
1.329433e-18
-8.1742171e-17
-4.291097e-22
8.1662323e-17
-2.7260976e-16
4.8906561e-17
1.3097479e-14
-9.7600788e-19
-7.3786612e-16
3.2232096e-15
-6.3855673e-19
4.0778611e-21
-9.6530138e-23
3.4559273e-23
-3.2409175e-20
1.5115094e-19
0
0
-3.3190063e-21
3.7110244e-19
-4.3958302e-22
-1.9960097e-23
1.2681376e-18
-1.1522627e-23
-1.4918787e-24
2.6470227e-18
-3.9169717e-21
-1.0824998e-22
9.499949e-20
0
6.211896e-18
4.2697863e-17
-9.9979078e-18
-5.4804804e-17
1.0410539e-15
-8.9204101e-18
1.9335536e-18
-4.8212098e-21
1.4116957e-22
-1.289826e-20
2.7627574e-19
0
0
-1.5011844e-22
5.0255415e-21
-1.4272033e-25
-2.6713153e-23
2.7475215e-24
-3.3157574e-24
-3.8103327e-22
3.7951547e-22
6.1030964e-24
-8.0192923e-22
7.9026178e-20
6.7451256e-22
1.4292773e-20
6.2073147e-18
-6.8555423e-19
-2.6468272e-18
2.7001066e-19
-1.9431032e-18
2.6939045e-17
-7.6216803e-23
3.2407076e-22
-1.5611732e-21
5.221495e-20
0
-1.8603852e-24
-4.0829172e-23
7.9612952e-22
-3.1985075e-23
-2.1356856e-23
2.2678326e-22
-2.8844917e-23
-1.5877919e-22
2.4131819e-21
5.7898409e-23
-4.16995e-22
2.4878899e-20
2.8352271e-22
1.0603392e-21
7.4026023e-21
-1.8682836e-20
-1.1422876e-22
4.5435705e-17
-1.1703046e-20
3.2356272e-18
-5.1502278e-21
3.1042657e-23
5.6363252e-21
-3.7972749e-22
-2.733036e-23
-7.91978e-25
3.7057256e-22
-2.9466043e-23
-6.2420154e-24
1.9053979e-22
-1.5690554e-26
-1.6307206e-23
9.5125419e-22
-4.7102434e-27
2.4106319e-23
1.7472683e-21
-9.1455707e-29
1.3689071e-24
3.3825311e-21
2.8075017e-24
1.4895328e-25
2.2495174e-21
-4.6692288e-22
1.3952134e-22
-1.7436331e-21
-9.8012035e-21
-9.5551753e-17
0
2.1935869e-15
3.2875883e-16
-1.5480486e-23
-2.1012782e-17
1.787949e-16
1.9217501e-22
-1.8098648e-21
5.4907175e-22
1.3916996e-15
-1.4270085e-15
3.5343488e-17
-2.2836021e-13
3.2211738e-13
2.8514355e-13
-4.4440354e-16
-4.5132049e-14
2.9598323e-14
-4.3125109e-16
-7.9605306e-20
3.5225963e-19
-5.6849449e-18
1.0790974e-15
2.010967e-17
-1.2040695e-17
0
1.5747661e-16
2.3847783e-16
0
-7.155509e-17
2.5194024e-16
2.0716497e-18
-1.3787439e-19
8.0591199e-19
8.2184809e-15
-7.2531895e-16
1.5735528e-14
-2.3329922e-13
3.4733232e-13
5.9016892e-13
-3.5054264e-17
-5.4027812e-14
6.150969e-14
-2.3950446e-17
-5.8105541e-18
2.0737215e-19
-1.1345824e-17
3.879075e-17
-2.8856692e-18
-4.95061e-18
-1.0717918e-18
8.3815641e-20
6.4377225e-18
0
-3.390758e-17
3.1751938e-16
2.4821634e-17
-5.5004057e-18
8.3617233e-17
-6.8817387e-15
-2.7827226e-17
1.0549256e-14
-1.2019764e-13
0
4.1086684e-13
-2.2264297e-15
-6.2393312e-15
1.6728661e-13
-2.905821e-18
-1.4787108e-17
1.0938347e-17
-5.2802799e-20
3.8784085e-18
-1.3747665e-21
-5.0453546e-20
-1.6359112e-20
1.0101723e-17
-4.7305336e-21
-2.9607971e-19
-2.0217898e-20
7.9481804e-17
-1.7841437e-19
-3.3271566e-18
4.933197e-17
-1.7796906e-15
-1.0631563e-17
1.7636479e-15
-1.2019447e-14
7.280409e-15
6.9055324e-14
-3.9073094e-15
0
1.1646718e-13
-1.7383197e-22
-7.2416034e-16
2.5274485e-17
-3.7575655e-20
6.5644458e-22
-1.1524305e-20
-7.0036014e-24
-1.0223374e-19
1.4840103e-19
-6.2817174e-19
-3.2124283e-19
-1.3641805e-23
6.721601e-19
-9.7005419e-18
-3.5907977e-24
8.8674982e-18
-7.071074e-18
-3.6961309e-21
3.1647636e-16
-3.2290821e-17
3.6253982e-16
6.9431837e-15
-2.520748e-16
0
4.97202e-15
-1.7784079e-17
-2.8447825e-16
1.0874046e-15
-1.5935012e-17
4.6959416e-20
-1.3011053e-23
-1.6477477e-26
-2.7230283e-20
3.3946796e-19
0
-4.1949652e-25
-1.5096581e-22
5.1541552e-21
-3.0867907e-22
-4.5687998e-22
7.5770964e-22
-3.4409151e-19
-8.0575753e-24
3.4046593e-19
1.9156273e-19
3.9410989e-18
3.5814222e-16
-7.6795787e-19
9.5834657e-17
7.9003234e-15
-5.2117109e-18
-2.2490655e-16
1.9392666e-17
-9.6899322e-19
2.6223927e-17
-2.7555226e-20
2.1120423e-22
-2.7872314e-21
7.6939917e-20
-2.2565098e-23
-5.6882493e-23
-5.2709799e-22
4.6438321e-22
-1.1972195e-23
-7.5762012e-21
2.8303271e-21
-3.2963709e-21
-4.6597503e-23
5.7871048e-21
2.8718561e-21
3.4555428e-20
3.9251573e-18
8.4802803e-17
3.7335904e-16
3.5021404e-15
-2.2430923e-18
-9.293542e-17
3.6339635e-16
-2.4907907e-22
2.8508775e-20
-4.4807916e-21
1.6621771e-23
6.5337302e-21
0
-2.0606352e-23
-1.694522e-21
2.1595368e-21
-5.7565115e-22
-4.1884786e-23
5.4277568e-20
-4.5498633e-20
-4.7833696e-23
5.557649e-20
-5.4552145e-20
0
3.5372296e-20
5.6139098e-22
4.3128034e-17
1.3104007e-15
0
-3.2952557e-20
1.0419012e-16
-1.1073723e-17
3.8964932e-22
-1.5102727e-20
-1.8257145e-20
-3.3459577e-16
-5.2808961e-17
5.2663293e-15
8.0280446e-15
2.3714964e-18
-1.3760026e-17
1.1451529e-16
7.9431994e-16
-7.9337451e-16
1.4250062e-18
9.7342505e-15
-1.2500151e-14
1.2416168e-13
-6.8869615e-14
5.7803312e-13
1.6831024e-13
-3.3817326e-19
-4.3129501e-14
6.5792453e-15
-1.2101105e-19
-5.7476908e-20
1.7887701e-19
-3.9734479e-18
1.0829478e-15
-1.381815e-21
-1.9712868e-17
-7.7563745e-19
4.5927451e-19
1.2469016e-16
7.4158864e-17
-1.5482846e-16
3.0589847e-16
2.8092904e-15
-2.9925301e-15
4.5495283e-15
-2.1077406e-13
-1.0672223e-14
6.383732e-14
-1.7212743e-13
9.8823897e-13
5.0685839e-13
-1.0751599e-17
-1.2976518e-13
2.8744577e-14
-1.0633631e-17
-1.3001482e-19
1.3890252e-19
-9.9104532e-18
2.2023795e-17
0
0
-5.8267936e-18
3.1818008e-18
2.8588521e-18
2.6438403e-17
-1.6993312e-16
4.0461776e-16
0
-1.7747211e-16
5.3661159e-15
-3.4218332e-13
-5.238557e-14
1.9700652e-13
-2.3794408e-13
8.5460494e-13
7.8751501e-13
-1.4274972e-17
-1.8254996e-13
3.0462696e-14
-3.371839e-18
-2.2620037e-19
1.8418071e-19
-1.1585349e-19
1.3820564e-17
0
-1.3469797e-17
-2.0011469e-18
1.2719729e-17
0
0
-6.7470771e-16
4.4320619e-16
-1.5870846e-15
-6.9498015e-15
8.3823565e-15
-8.3865777e-14
-2.9240508e-14
1.3747549e-13
-9.9819011e-14
0
6.5225691e-13
-3.3783646e-17
-6.6852091e-14
3.1112298e-14
-1.7517422e-20
-8.9120634e-18
2.5524959e-19
-1.432412e-18
7.8503821e-18
-6.5498111e-18
-1.8770153e-18
-1.446044e-19
1.7261429e-19
0
-3.9666762e-16
-6.3072229e-16
1.2855671e-15
-9.9087509e-17
-2.7585259e-15
1.7314709e-14
-2.1308184e-14
-4.9576773e-15
8.4157537e-15
-1.0335951e-14
0
1.9637868e-13
-1.0744337e-15
-4.1209702e-14
4.1884787e-14
-2.8343973e-18
-2.3834471e-18
9.4876125e-18
-9.1662458e-18
2.7695821e-18
0
0
-7.9594663e-20
1.6641485e-19
7.3870711e-21
-1.6932015e-16
-3.9012984e-20
4.238277e-16
-6.6080987e-17
-6.1560384e-17
7.8700611e-15
-6.3831408e-15
-6.8829632e-16
3.1583989e-15
-3.7833114e-15
0
6.4385615e-14
-2.1465056e-16
-4.3358756e-15
4.4196728e-14
-7.4740221e-18
-1.9258575e-16
2.2931637e-18
-2.5662761e-20
1.002978e-17
-2.4256757e-19
0
-2.6986392e-21
3.1280532e-20
3.4106659e-23
-3.9425564e-20
-1.1059671e-21
1.0085944e-21
-6.217383e-17
-2.4238954e-19
8.1860579e-19
-1.5582085e-15
-5.2163486e-17
6.9228885e-16
-1.4265962e-17
0
2.641958e-14
-2.8979341e-17
-8.585171e-16
5.0099586e-17
-2.5315689e-20
-1.2721079e-16
5.650199e-17
-6.0912883e-22
2.8784244e-21
-2.4123002e-20
7.7064472e-24
1.0111667e-20
-3.1508317e-21
0
-1.8949586e-22
1.7685514e-21
-6.2857336e-22
0
1.256033e-19
-2.6523985e-19
-6.4284206e-17
4.7602079e-17
-4.6200213e-18
2.041702e-17
2.3070772e-15
2.3183482e-17
-1.8890628e-17
5.9044249e-16
0
-5.2233154e-20
8.2581283e-17
-2.100321e-18
1.5356734e-20
-6.660787e-20
-9.7565715e-22
0
-1.275791e-18
3.6470317e-15
7.0392737e-16
4.0652653e-16
-1.7013686e-16
1.0250901e-15
4.4813407e-16
-3.6135216e-17
1.8271604e-18
5.7170659e-14
-2.5688255e-15
2.4361013e-12
-4.1076443e-15
4.1575524e-13
1.963478e-13
-7.735527e-15
-9.4645762e-16
1.4049746e-16
8.6729246e-16
-2.8586383e-20
2.2911935e-14
-1.7178662e-17
1.1544156e-13
2.5754325e-15
2.9003877e-22
-8.3631129e-19
1.0769145e-20
0
3.8865195e-17
-5.8596862e-17
3.3462371e-17
1.7977612e-16
0
1.65282e-16
2.4918999e-16
-3.8170659e-13
4.3867869e-13
-4.2828668e-14
1.6778164e-14
6.987061e-13
-1.7124238e-20
-4.9657656e-16
3.2326808e-15
5.4940138e-20
-1.1084695e-19
1.2602023e-19
-3.4137091e-19
5.1868622e-18
3.1543478e-20
2.8707468e-18
-2.179277e-18
2.7734882e-18
6.5766815e-19
1.1081274e-16
-7.567612e-18
7.7862216e-17
9.5889445e-15
-3.0508039e-14
2.030643e-15
7.8227011e-14
-2.3731786e-13
5.0424907e-12
-3.0750862e-14
0
9.5049717e-13
-1.4894002e-19
-1.384853e-15
6.0023788e-16
5.1860535e-21
-2.9952286e-19
1.9658493e-19
-1.5477898e-16
1.6786036e-16
3.8156144e-19
1.2491267e-18
-2.03318e-20
3.442525e-18
1.6956531e-19
1.0771e-15
-6.4957533e-16
9.1587184e-18
4.0958528e-14
-2.0516087e-14
8.3291912e-14
9.768795e-15
-8.3137852e-15
1.0830381e-12
-4.093593e-14
2.7829648e-14
1.3189524e-12
-5.5972328e-17
-4.334109e-14
4.7417298e-15
-5.726058e-17
-3.5100461e-19
1.6456174e-18
-3.152072e-17
3.9589223e-16
-7.114377e-18
1.5989559e-19
-1.2533243e-20
1.4794228e-20
0
1.9276462e-16
-6.7736119e-16
6.5096877e-16
1.9010612e-16
-7.9767557e-15
4.0505786e-15
-4.9704112e-14
-2.8468112e-16
5.0703064e-14
-9.6266037e-14
0
5.2887889e-13
-9.3994459e-18
-1.0632179e-13
1.0125677e-13
-1.3262026e-19
-5.7143603e-19
4.7012719e-19
-2.3662238e-18
1.5504031e-18
-2.7990974e-17
1.6953202e-19
-2.1215995e-20
1.6386459e-20
5.1687037e-22
1.2470685e-16
-1.7292822e-21
1.8762109e-16
2.4184423e-16
-1.758668e-18
7.0814267e-15
-1.3616589e-14
-7.16079e-17
1.693046e-14
-2.4798193e-14
0
1.5622931e-13
-1.6634552e-17
-6.4090254e-17
6.0712179e-14
-1.181757e-18
-1.4353184e-17
6.9567585e-19
-4.7904324e-18
2.6167212e-18
0
1.4093977e-21
0
1.8621432e-20
0
2.3669544e-23
-9.2338637e-22
6.7897454e-22
-4.4902545e-18
-3.5037407e-20
3.5844151e-18
-7.9200189e-15
-1.68953e-17
8.5532044e-15
-2.6303415e-18
9.2752185e-16
7.4759225e-14
-2.9861884e-18
-1.0105642e-17
1.6659412e-18
-9.4776137e-19
-3.549513e-17
1.8783019e-17
-8.8523088e-18
1.5591482e-17
-2.2750064e-18
2.1543793e-20
6.2040136e-19
-1.4229515e-20
-6.1805727e-19
1.3102525e-24
2.377581e-20
-2.1862539e-21
-2.7860705e-18
2.8847362e-18
-8.1092788e-21
-2.3137229e-15
2.4420852e-15
-3.7259653e-20
-1.1499161e-16
3.2605007e-14
5.6303139e-15
-1.0232282e-17
4.754248e-16
-7.5806729e-20
-2.9257441e-18
2.0447715e-16
0
2.7741862e-17
-5.1486718e-19
-5.7184302e-18
3.4286498e-16
-4.7108284e-21
1.1579522e-15
8.9082139e-16
5.8803798e-16
-2.2444291e-17
6.0466429e-17
6.3721135e-16
-4.5234327e-17
3.4508014e-18
1.1009605e-14
4.4922574e-12
1.9844197e-12
-5.5177688e-17
-2.6674172e-14
4.7263927e-13
0
-7.5747108e-18
4.2215632e-18
9.0675319e-15
-5.9542513e-15
2.3168647e-14
9.1087808e-14
1.1447184e-13
-3.6587789e-14
4.7837935e-21
-1.8014426e-20
7.1130982e-21
3.3699728e-21
1.1616158e-17
-7.5930746e-19
1.5729888e-19
2.5268165e-14
-2.5339817e-14
2.0301113e-16
-1.4511561e-12
9.6071979e-12
6.8383372e-12
-3.3181327e-15
3.4448719e-14
5.4341642e-13
-1.1409415e-16
-1.4012026e-17
2.1343263e-17
0
-3.2946857e-16
6.6324117e-15
6.2894346e-15
1.4851857e-13
8.7800674e-15
2.5882463e-20
-3.0431896e-20
2.7538533e-18
-3.5277443e-22
7.6981497e-17
-3.9776351e-19
5.3959796e-19
1.5561176e-12
-5.9333612e-14
5.8737782e-14
-1.3289826e-12
1.1412696e-11
7.6158603e-12
-2.180008e-15
-5.8428424e-13
2.469891e-12
-1.1035403e-18
-1.6049863e-15
1.6394327e-17
0
-3.3191718e-16
1.5184582e-18
0
2.748937e-14
0
2.2744571e-20
-1.4618425e-20
3.4020011e-18
-2.4957062e-21
2.2200904e-17
-1.3675872e-17
2.3608431e-19
2.9225192e-13
-1.009715e-13
8.8852621e-14
-1.0543568e-12
3.0713971e-12
4.2334492e-12
-1.2961192e-13
-9.3826918e-13
2.9758845e-12
-3.2774885e-16
-1.276054e-13
1.449354e-15
-7.0209378e-17
-8.1079552e-19
7.4648124e-16
0
5.0705325e-16
0
7.8376776e-21
-1.873822e-20
1.3816764e-20
-2.5957902e-21
7.0010315e-16
-7.105374e-17
8.2470812e-18
-4.0262692e-14
-6.4828905e-14
1.3496401e-13
-1.3588926e-16
0
1.9714643e-12
-1.116001e-13
-2.6088154e-13
5.3971574e-13
-2.4285725e-17
-2.0051346e-13
1.4934354e-13
-2.2252418e-17
-3.0357426e-18
7.3873193e-19
-5.2853403e-18
1.2403738e-16
-2.4543965e-17
9.2075189e-20
-1.0347553e-19
1.9587951e-20
-1.6719647e-21
7.4593749e-16
-5.0440592e-16
4.6537119e-17
-1.6558734e-13
-4.4681588e-14
5.8872587e-14
2.1533618e-13
7.1941965e-13
2.3663186e-12
-3.9017261e-16
-4.3156134e-15
4.6349895e-13
-2.1282769e-16
-3.2034939e-15
5.4660751e-14
-2.6408353e-19
-2.1794149e-16
2.8032014e-18
-7.0773842e-18
1.3463197e-18
-1.1820943e-18
6.2617238e-18
-6.3714164e-18
6.2279143e-20
-1.9906327e-20
0
-4.9059076e-15
1.1279104e-15
-1.1342558e-13
-3.595012e-14
5.5481585e-14
1.5586525e-13
1.5059367e-12
3.7572165e-12
1.9482095e-15
2.296644e-15
2.0069446e-13
-3.2164436e-17
-1.5117588e-15
3.012012e-16
0
-2.160809e-16
2.1962742e-16
-3.5694335e-17
2.2653611e-17
-2.3491765e-20
1.4138935e-16
3.1554566e-18
-1.5559448e-18
-1.4878042e-16
-2.7951774e-15
4.6993455e-15
-6.1491895e-15
-4.3599435e-15
8.8127461e-14
-1.16569e-14
4.2938671e-15
1.4056436e-12
1.0328296e-13
1.7840426e-16
5.502922e-14
4.1166096e-16
-4.7332505e-17
5.8253842e-15
-2.0842132e-15
-4.0773807e-17
5.6984457e-16
-1.8827101e-16
8.9847942e-17
-5.3181851e-18
-6.5825792e-17
0
0
8.4889389e-15
-3.8576611e-14
5.2982035e-17
-2.2452074e-24
8.4624818e-18
2.3582093e-17
-6.3470027e-16
1.645661e-15
-1.3975187e-13
1.5884031e-12
2.1258354e-12
-7.4397673e-15
3.3604754e-13
1.1659518e-12
-7.4739854e-15
-1.9833368e-16
1.7276206e-16
5.0017184e-15
-5.782763e-15
1.1950483e-14
1.2996774e-13
4.3866258e-14
-9.6704224e-15
2.5265039e-18
-1.7426016e-15
1.4876824e-17
1.7251966e-15
1.0159399e-17
-6.9321128e-18
8.7573474e-20
2.0440172e-13
9.1615078e-15
1.6720731e-13
1.4553339e-12
3.2405028e-12
5.466049e-12
2.6399303e-14
1.0842326e-12
1.573659e-12
-3.5306374e-15
-4.9624984e-19
2.9764928e-14
0
-4.460153e-16
1.5643761e-14
1.3122676e-13
1.8024027e-13
9.9875551e-15
1.1650859e-15
-9.3649897e-16
3.3935476e-15
5.0996064e-14
1.1929778e-15
-4.1625602e-17
7.9510885e-18
1.1584468e-12
-7.0829532e-15
7.1928923e-13
-2.1987647e-12
1.2001021e-11
3.705386e-12
-4.6654139e-17
3.4685056e-12
3.8696125e-12
-2.0256901e-18
-2.338281e-17
4.2706849e-18
0
-4.9771022e-16
5.5274267e-17
0
2.0643577e-13
9.2272476e-16
3.9106622e-15
0
5.929397e-15
0
3.8609708e-15
-1.1467913e-17
1.9610037e-17
-7.2610389e-13
4.9138264e-14
2.7289849e-13
-1.6760298e-12
1.8381862e-11
2.3610282e-13
-5.1769697e-15
3.4009224e-12
3.031751e-12
-1.8177631e-16
-3.7093517e-15
1.5072289e-16
-3.6862771e-17