/*--------------------------------*- C++ -*----------------------------------*\
  =========                 |
  \\      /  F ield         | OpenFOAM: The Open Source CFD Toolbox
   \\    /   O peration     | Website:  https://openfoam.org
    \\  /    A nd           | Version:  13
     \\/     M anipulation  |
\*---------------------------------------------------------------------------*/
FoamFile
{
    format      ascii;
    class       volScalarField;
    location    "0.02";
    object      alpha.water;
}
// * * * * * * * * * * * * * * * * * * * * * * * * * * * * * * * * * * * * * //

dimensions      [];

internalField   nonuniform List<scalar> 
51200
(
0
0
0
0
0
0
0
0
0
0
0
0
0
0
0
0
0
0
0
0
0
0
0
0
0
0
0
0
0
0
0
0
0
0
0
0
0
0
0
0
0
0
0
0
0
0
0
0
0
0
0
0
0
0
0
0
0
0
0
0
0
0
0
0
0
0
0
0
0
0
0
0
0
0
0
0
0
0
0
0
0
0
0
0
0
0
0
0
0
0
0
0
0
0
0
0
0
0
0
0
0
0
0
0
0
0
0
0
0
0
0
0
0
0
0
0
0
0
0
0
0
0
0
0
0
0
0
0
0
0
0
0
0
0
0
0
0
0
0
0
0
0
0
0
0
0
0
0
0
0
0
0
0
0
0
0
0
0
0
0
0
0
0
0
0
0
0
0
0
0
0
0
0
0
0
0
0
0
0
0
0
0
0
0
0
0
0
0
0
0
0
0
0
0
0
0
0
0
0
0
0
0
0
0
0
0
0
0
0
0
0
0
0
0
0
0
0
0
0
0
0
0
0
0
0
0
0
0
0
0
0
0
0
0
0
0
0
0
0
0
0
0
0
0
0
0
0
0
0
0
0
0
0
0
0
0
0
0
0
0
0
0
0
0
0
0
0
0
0
0
0
0
0
0
0
0
0
0
0
0
0
0
0
0
0
0
0
0
0
0
0
0
0
0
0
0
0
0
0
0
0
0
0
0
0
0
0
0
0
0
0
0
0
0
0
0
0
0
0
0
0
0
0
0
0
0
0
0
0
0
0
0
0
0
0
0
0
0
0
0
0
0
0
0
0
0
0
0
0
0
0
0
0
0
0
0
0
0
0
0
0
0
0
0
0
0
0
0
0
0
0
0
0
0
0
0
0
0
0
0
0
0
0
0
0
0
0
0
0
0
0
0
0
0
0
0
0
0
0
0
0
0
0
0
0
0
0
0
0
0
0
0
0
0
0
0
0
0
0
0
0
0
0
0
0
0
0
0
0
0
0
0
0
0
0
0
0
0
0
0
0
0
0
0
0
0
0
0
0
0
0
0
0
0
0
0
0
0
0
0
0
0
0
0
0
0
0
0
0
0
0
0
0
0
0
0
0
0
0
0
0
0
0
0
0
0
0
0
0
0
0
0
0
0
0
0
0
0
0
0
0
0
0
0
0
0
0
0
0
0
0
0
6.5109138e-26
2.5286305e-47
0
0
7.4509518e-97
0
-7.9019702e-49
1.5411439e-27
-2.6075075e-83
3.8583839e-52
0
5.4355229e-95
-2.7415467e-66
0
2.4184685e-59
8.1071485e-29
-1.4987655e-84
1.4272288e-19
6.7124669e-19
1.1362617e-21
-1.6571633e-42
9.3694877e-47
-3.2395418e-75
3.5057414e-56
1.8275954e-44
2.7388011e-19
8.2238716e-21
2.3552867e-41
-1.6183235e-45
3.8583839e-52
0
-7.7167678e-52
-1.7966472e-61
3.6225682e-21
1.1122246e-23
5.1786583e-44
0
0
6.7638573e-60
3.767953e-55
5.4831e-66
-5.3028847e-41
1.2409315e-79
0
-3.0867071e-51
2.299776e-59
0
-1.6806683e-58
5.4811522e-66
0
0
3.7040486e-50
7.5359061e-55
5.6146876e-63
-2.1932373e-65
0
0
-1.2643152e-47
-4.9387314e-50
-2.4114899e-53
0
0
3.9589731e-148
-8.7729493e-65
3.9151607e-17
1.7401883e-15
4.140847e-12
1.1936483e-10
2.6735384e-12
3.1552424e-17
3.0607639e-21
2.8052339e-30
7.1035199e-15
1.7839824e-14
1.007496e-11
1.454151e-10
5.0577736e-12
3.6539812e-38
1.0451492e-33
2.7653464e-30
6.1690954e-13
9.2659793e-22
1.1872293e-22
5.7119716e-22
1.1752027e-26
3.6921834e-32
4.3441541e-37
1.4651094e-32
1.1122177e-34
7.5349397e-23
4.9622427e-23
2.2381134e-15
7.6913774e-14
8.6224672e-14
1.5778425e-16
2.3937207e-40
2.156674e-14
4.3443155e-23
6.2493435e-24
4.3081825e-28
5.1254905e-13
2.7932133e-13
8.9321171e-15
1.4062496e-14
-1.3257306e-41
6.9641391e-26
1.6603348e-16
1.502973e-13
7.1352187e-13
1.8469486e-13
-6.7562737e-40
4.2471607e-16
-2.1720543e-37
6.4223703e-18
1.1530529e-17
3.2793889e-15
4.3018298e-14
2.9425586e-14
3.9938184e-14
2.0261108e-20
8.5306787e-18
2.2887311e-17
1.220781e-18
1.8486265e-16
2.1941654e-15
2.5331692e-15
8.1653158e-15
1.7758478e-17
1.9606805e-17
3.451139e-14
3.3971183e-11
5.9977777e-10
2.6576321e-12
6.7957465e-13
1.3137909e-06
1.1449874e-08
7.1074165e-17
5.402847e-12
8.3351371e-11
5.8993469e-10
1.2468833e-12
1.8751557e-09
1.2768379e-06
3.9690881e-08
7.700024e-13
5.5300702e-11
3.7523318e-10
1.7163885e-09
1.5362408e-11
3.6872143e-10
9.0387562e-08
1.2479102e-08
1.9245378e-11
4.5156379e-11
7.7728578e-18
2.5702806e-09
4.8771663e-11
4.1838361e-13
1.5821246e-16
1.3726716e-10
3.5570758e-12
4.6996677e-12
8.7505784e-11
3.5208841e-10
1.8733422e-11
2.8550912e-12
2.9780428e-16
4.3232717e-16
1.7644352e-12
2.8745373e-13
1.6610931e-16
1.7417338e-16
1.4496069e-11
3.3233146e-12
6.5423212e-14
4.2620705e-16
6.1871773e-14
9.2901219e-16
2.721291e-16
7.8749105e-14
1.2983611e-12
9.9336908e-13
1.0785639e-13
7.7717582e-15
4.8529201e-15
2.8772034e-16
2.6968018e-17
5.0603523e-15
9.2281409e-14
1.6300029e-13
2.8124539e-13
9.2768666e-14
3.9632209e-17
4.0045944e-17
1.7939436e-11
2.6943161e-10
1.6486564e-12
1.0610025e-09
4.5902276e-07
7.7580294e-09
4.0045945e-17
1.6890263e-11
8.0611605e-11
1.2926113e-10
1.2447626e-12
6.2976034e-13
1.5889954e-06
7.4220618e-08
5.3428712e-12
2.1026233e-10
5.0043348e-12
2.5373592e-12
2.5177071e-12
1.0535051e-14
6.0524507e-07
4.3603937e-08
5.0163063e-10
1.2177842e-09
8.4817563e-10
1.7522515e-09
1.0946935e-14
7.6729425e-15
1.783122e-15
2.7692923e-10
1.3600602e-11
1.2876051e-10
1.3212473e-09
9.3188416e-10
3.3694869e-11
1.8074658e-14
2.4786016e-13
5.3168248e-09
3.3358273e-11
1.35707e-13
9.383914e-16
5.6030499e-16
3.0520829e-11
1.7668449e-13
2.2207074e-08
6.7832353e-09
1.2905945e-12
3.7412528e-14
3.9970877e-14
1.4173777e-12
1.0923409e-11
1.713173e-12
8.8287405e-15
7.774011e-15
2.0792497e-13
5.5965184e-15
1.5938102e-14
1.6016295e-13
9.4709416e-13
5.492717e-13
5.9684125e-13
1.3309082e-13
7.3888922e-06
9.4331468e-07
1.2215212e-12
1.0982341e-12
1.0291687e-12
0.00014069272
4.1349616e-08
7.7811683e-09
9.7167655e-07
1.6900237e-11
2.2966912e-09
1.0504938e-12
1.0284242e-12
0.00014065603
1.9284491e-10
3.1852981e-08
5.4113876e-12
1.1284081e-11
5.1557346e-08
1.105292e-07
8.0597325e-13
7.9906247e-05
1.5767472e-06
1.1321023e-13
8.0661133e-11
1.2251938e-09
4.1454608e-08
3.9165181e-12
2.7495912e-13
2.1399552e-06
1.7890552e-06
5.3393024e-14
8.7370072e-11
1.2168818e-10
9.7631442e-16
1.7385379e-15
2.368464e-13
2.7999857e-14
3.9835545e-07
1.4492366e-09
1.422131e-10
1.4979417e-12
9.3843013e-16
9.9792907e-16
1.7384669e-15
1.0795292e-13
1.2442855e-11
1.4217674e-08
1.6437818e-11
2.9767521e-13
5.9967226e-14
8.5329922e-13
1.2348889e-12
2.6381884e-12
4.1078506e-09
1.5358434e-09
2.0048492e-12
7.0690324e-14
3.7961212e-14
2.6324406e-13
5.858606e-13
6.1553227e-16
6.5251235e-15
1.3450844e-14
6.712807e-06
6.4375119e-07
1.3398036e-12
1.2215212e-12
0.00044862273
0.00013212393
1.2761133e-10
3.8990302e-06
2.2577458e-07
1.8831801e-07
1.3398036e-12
1.0619613e-05
0.00044750475
0.0001100987
1.3657896e-10
6.7276101e-08
2.9169822e-11
1.3635236e-07
5.3550615e-12
3.65104e-06
0.00016688015
0.00013851102
6.3148897e-11
2.2730162e-09
4.5638135e-09
6.6928031e-09
7.1877437e-09
1.1814691e-11
1.0200112e-05
5.944126e-05
4.5741867e-13
2.509549e-13
7.675355e-11
1.0491083e-14
3.5278835e-09
5.6787636e-08
4.2490849e-13
9.1375435e-07
4.9576286e-07
4.4491178e-14
1.5428418e-10
2.4360951e-15
9.7631318e-16
1.7384669e-15
1.5172822e-13
2.5109755e-07
6.8243062e-09
1.4211069e-08
3.1781233e-11
1.5788947e-13
4.7713127e-13
2.533103e-14
2.234518e-13
1.1791397e-06
1.3545385e-07
1.1153056e-13
2.440521e-12
7.0722758e-13
1.5179359e-11
4.8167287e-14
1.6407669e-13
4.3129581e-07
3.5027302e-08
3.8175287e-14
2.4054757e-05
2.0522815e-07
1.3398036e-12
1.8450916e-05
0.00044920627
3.9998394e-05
1.2630404e-10
1.2761131e-10
1.2864354e-11
2.5558719e-07
3.670689e-06
1.6993758e-05
0.00044900525
6.129362e-05
1.2498871e-10
3.3245312e-08
2.4867902e-09
2.2736711e-07
2.5815068e-06
7.218428e-06
0.00044848629
5.4362849e-05
7.784582e-11
8.824991e-09
7.5111038e-09
1.8558255e-07
9.3871812e-09
2.8393365e-05
0.00019021366
3.1618842e-05
1.5392795e-11
4.5741861e-13
6.6674049e-12
4.7462108e-07
5.6573452e-06
2.5036006e-06
4.0896711e-05
7.1690674e-06
8.2457391e-11
1.5492752e-09
5.3887646e-11
1.3831513e-07
1.8865457e-06
9.5800931e-07
1.4581502e-05
8.9206763e-06
1.9522386e-10
9.2921618e-09
1.8033943e-11
1.5833885e-13
2.3554489e-13
1.8386439e-07
4.4027788e-06
5.9492779e-10
6.4948998e-08
2.5631931e-13
4.2864555e-13
2.5994234e-13
3.6964688e-12
1.1215504e-08
2.3270785e-07
2.8480007e-07
2.3822611e-08
1.1153056e-13
2.1690866e-05
2.367805e-06
1.4224548e-09
0.00018970495
0.00044915151
2.2363056e-07
4.7832611e-05
0.00010861259
1.0997795e-11
2.7786095e-08
8.9907926e-08
9.1483587e-08
0.00039912031
2.2265061e-06
1.2499158e-10
1.2498871e-10
1.8248935e-09
3.8088949e-08
4.3548462e-07
0.00010315983
0.00032745909
1.2517712e-10
1.2498871e-10
1.2517585e-10
2.0104777e-09
9.1323922e-11
2.5479814e-05
2.1923221e-05
0.00032064635
3.5840537e-06
7.7847529e-11
2.3688412e-07
6.3621221e-12
2.2324879e-07
2.1920291e-07
5.5522726e-08
0.0001521096
2.9372038e-05
1.5961961e-10
1.9382338e-10
5.7243347e-12
8.7096036e-08
1.6442875e-06
1.6705447e-08
3.0257523e-05
2.1597747e-05
1.9382503e-10
1.7242454e-09
5.065121e-12
1.6420888e-13
1.6928051e-13
1.0691096e-11
2.1467629e-05
2.9902896e-10
5.0658942e-09
4.3134602e-09
2.1637157e-13
1.6928052e-13
1.405357e-13
6.2189346e-12
8.1393544e-06
1.8096422e-11
2.1895274e-08
4.2805374e-09
3.4117042e-06
6.4864858e-07
1.4879914e-09
0.0019827949
0.00027021699
8.1192913e-09
5.4810406e-05
0.00022782264
1.0999758e-11
1.0998308e-11
7.1705446e-11
0.0021135111
0.00020866527
4.4256816e-09
3.318988e-06
0.00013070344
8.7059208e-12
1.3707088e-11
3.4258167e-06
0.0022227438
0.00023421604
5.0943925e-10
1.2545615e-10
7.1984286e-06
6.4143021e-12
1.2541613e-11
2.444784e-05
0.0016015307
0.00031740232
4.4256852e-09
1.5771419e-07
2.5682689e-07
6.3980052e-12
6.4151413e-12
2.5111209e-05
0.0005239999
9.3435352e-05
4.0303639e-05
1.9382359e-10
5.6872132e-08
6.364378e-12
7.4830698e-09
1.630517e-05
0.00022699845
5.572117e-05
1.6515826e-05
2.2484224e-10
5.1721962e-10
5.7918927e-12
3.0700034e-07
1.6063485e-05
0.00014693459
5.5271476e-06
5.5922554e-10
6.7983895e-08
7.4791241e-09
1.6498922e-11
1.2563277e-06
1.6347628e-05
5.1885253e-09
2.0286747e-07
3.7560196e-07
1.7555867e-07
2.7698871e-08
2.948392e-05
7.7577327e-11
3.9280781e-08
0.0022329438
0.0010990273
4.7439416e-09
3.9545352e-05
0.00022780361
1.0999758e-11
4.3730608e-11
3.0562764e-05
0.0022329438
0.0009640783
1.2084519e-09
1.1115673e-05
0.00022780665
1.3968757e-06
4.6369877e-11
0.00021162243
0.0022306742
0.0011400183
1.0510917e-09
5.0943925e-10
0.00010206653
3.0981934e-06
5.4596108e-11
7.9855409e-05
0.0022227438
0.0012070874
1.2084519e-09
2.3324608e-07
3.3062558e-07
6.4836809e-12
7.5301987e-10
4.6248322e-05
0.0022175325
0.00072480881
1.5181552e-06
2.3854158e-10
5.3232696e-08
6.5371511e-12
7.5317052e-10
5.186784e-06
0.0022100559
0.00052617158
1.9454676e-09
2.7474927e-10
4.9663236e-10
2.6771699e-11
3.5747747e-08
3.6620443e-08
0.0021998858
0.00027652432
5.8056403e-06
2.7970123e-08
8.7574462e-09
5.7967769e-10
1.3361289e-09
3.565191e-05
0.0021494381
0.00017643382
1.4422437e-05
1.4791107e-07
3.0121375e-08
2.6317062e-05
1.3315097e-08
0.00032168944
0.00082104622
0.0010456033
9.8533812e-05
2.0968998e-05
0.00022782207
1.8803239e-05
7.6393397e-11
0.00016547777
0.00037752457
0.001094735
0.00014576204
8.7654685e-06
0.00022779569
7.3495415e-06
2.0828363e-09
3.6957452e-05
0.001522905
0.0016965988
0.00021594566
1.8117466e-09
0.00015097825
2.2298631e-07
7.4243677e-09
1.2514593e-08
0.0022169128
0.0018376691
0.00013642096
2.3325615e-07
6.3993064e-07
2.1423029e-08
2.4730687e-09
0.00011747058
0.0013523658
0.0016127191
0.00062944083
1.7430572e-05
3.1649387e-08
3.4100065e-09
1.4998699e-09
0.00024067545
0.0019757575
0.0021674245
0.00044829541
2.4200533e-06
5.7210607e-10
6.4860102e-10
1.1355439e-09
3.8421647e-05
0.0021811768
0.0021544947
7.9526044e-05
1.9942547e-07
1.1876113e-09
1.912378e-09
1.5268088e-09
1.9535663e-09
0.0021587399
0.0010977342
1.5417361e-05
2.4224001e-08
2.3909086e-08
3.2291972e-06
3.9584253e-08
0.00042646264
0.00021279362
0.00029485465
0.0002464372
2.4790618e-05
6.5662761e-05
8.947668e-07
1.896802e-05
3.573245e-05
3.8011675e-05
0.00013983157
0.00055833705
3.5808839e-05
0.0001647445
1.667438e-06
3.7397869e-09
0.00020323248
0.00039905274
0.0012319555
0.00068092755
1.5331034e-05
4.5857836e-05
7.1681057e-07
3.6331156e-09
0.00052404945
0.00048870939
0.0010193585
0.00031660791
2.35025e-05
6.3838047e-08
2.169901e-08
5.8103531e-09
0.0002018906
0.0012121666
0.00073271769
0.00068577897
0.00019908941
1.0407116e-07
2.4647215e-09
1.5363387e-09
6.9689058e-05
0.00081376506
0.0021610876
0.0007479746
2.2965623e-05
1.1925368e-06
4.6547815e-09
1.5256568e-09
1.5517489e-09
0.0015977076
0.0021673602
0.00020990005
1.1774523e-05
1.0090038e-06
3.5269722e-09
1.5268086e-09
9.5262528e-06
0.0011635231
0.00096058203
0.00011658152
2.1726412e-05
1.4617559e-08
4.2767041e-06
7.5122668e-06
0.0012484591
0.0073153751
0.0039164117
0.0002012247
2.9138806e-07
2.6938254e-07
2.8052775e-08
3.7397869e-09
0.0025108548
0.0056856071
0.00066021604
0.00057538195
4.1898668e-07
3.8594597e-06
1.821691e-08
3.6329293e-09
0.001956895
0.0055865431
0.0033983592
0.00025816524
2.3522492e-07
3.7133138e-06
5.6007262e-08
3.2506102e-09
0.00074688763
0.00061391108
0.0049803964
0.00017664353
6.392423e-08
6.392423e-08
2.5811537e-09
2.8152726e-09
6.5285565e-05
0.0020091249
0.0057423815
0.0004003799
2.1667749e-07
6.5919645e-08
2.5380938e-09
6.9250583e-09
7.8539695e-09
0.0010714305
0.0014537169
0.00050223268
1.2625238e-07
1.4177459e-07
8.6483596e-09
1.5296152e-09
1.6498349e-09
0.00029071483
0.0007147262
0.0006439025
2.6783627e-07
3.7852514e-07
2.3396727e-08
1.5254212e-09
1.5302159e-09
0.00077135327
0.00038484196
0.00056855039
5.542454e-06
1.7091307e-08
9.7365539e-08
0.00034423719
0.00034492573
0.017276822
0.010422578
3.9701295e-07
1.2706857e-06
8.864989e-08
4.4404096e-09
0.00020004564
0.0010669877
0.019789513
0.01332172
1.4132065e-07
9.3646291e-08
9.0662307e-08
4.3852083e-09
9.5413751e-05
0.0029422156
0.012946568
0.01233744
0.00086246216
9.6078032e-08
7.8191285e-08
3.5881922e-09
1.2833572e-06
0.0021965589
0.017521126
0.005539368
4.4467547e-05
3.2953565e-05
6.3873077e-08
2.7277052e-09
3.7057731e-08
0.0018047386
0.013956482
0.0131245
0.0036322525
0.00053693704
7.4452241e-08
2.5380938e-09
2.5380938e-09
0.0025110322
0.011987481
0.013073075
0.0085193543
3.1622306e-07
1.0214004e-06
2.5887726e-09
2.3460447e-06
0.00067020298
0.012913558
0.012933305
0.0048993547
1.1399053e-06
2.3935511e-08
5.7511683e-08
1.4787385e-07
0.00099342468
0.011900993
0.0048932211
0.00034260238
2.1047873e-05
1.9458313e-08
0.0010336897
0.00017843271
0.0097821971
0.012057548
0.0093444589
2.5149403e-07
1.7365242e-07
9.1630204e-08
0.00068332321
0.00016773245
0.0080302388
0.021505375
0.0083134958
1.7693125e-05
1.4125678e-07
9.3569599e-08
0.00028121209
9.7418487e-05
0.0043406938
0.021805944
0.0040411697
1.6124454e-05
8.6089157e-06
0.00020091941
0.00014388384
0.00061379724
0.011849969
0.02179287
0.0079200384
0.00024832314
4.0685515e-05
0.00054152902
1.471482e-05
2.07374e-06
0.0097038374
0.021803627
0.0090299933
0.00030132822
0.00010874414
1.3984969e-07
2.7498986e-08
2.9524004e-06
0.010307308
0.021750527
0.012997022
8.1220717e-05
6.5753293e-06
1.4626793e-05
5.0995705e-09
1.7963346e-05
0.011657643
0.0216432
0.016831606
7.7549544e-06
1.0325843e-05
8.0345494e-06
3.4371712e-08
2.8818529e-05
0.012749352
0.021588274
0.01544642
6.5507721e-06
5.8505358e-06
1.3151632e-05
0.0029728787
0.0014425161
0.00099402229
0.0038140555
0.032149692
5.4226308e-07
0.00053453891
0.0016103763
0.0029739411
0.0013245905
0.00099402229
0.0011253833
0.029647769
5.4122065e-06
0.0001402008
0.0013784909
0.0029334474
0.001795714
0.0013122442
0.00056971289
0.030900719
1.0837871e-05
3.415959e-05
0.00088821119
0.0015710367
0.00023173901
0.00055901324
0.00056752549
0.02866657
8.1084333e-06
1.4083653e-05
0.00031197509
0.00064584899
0.00015363539
0.00015927824
0.0023019769
0.020695177
7.19946e-06
7.3080488e-06
1.0963934e-05
3.0099203e-06
6.9810283e-06
0.00026600509
0.0026310056
0.011125533
7.2145114e-06
6.6584289e-06
7.320861e-06
1.5535859e-07
6.1879376e-06
2.2362118e-05
0.00087001335
0.0059512216
6.6584289e-06
5.91912e-06
4.7433656e-05
1.0096226e-07
3.8580119e-06
8.6478281e-05
0.00046296858
0.0051411925
3.6048289e-05
5.7200346e-06
1.5815653e-05
0.0027359568
0.0011080617
0.0061125454
0.14556255
0.12033762
5.4122064e-06
0.0015750401
0.0017652742
0.0014829355
0.0012535286
0.0060192628
0.1562417
0.12994851
1.1324402e-05
0.00084658179
0.0017659798
0.00093356525
0.00075568528
0.0037707649
0.16395191
0.12853339
1.2756052e-05
0.00093072581
0.0014166307
0.00067206989
7.1863747e-05
0.011364396
0.16845945
0.14173196
8.6432544e-06
0.00013738343
0.00027399692
0.00025085998
3.9812539e-05
0.016666131
0.15989195
0.14680671
7.4978631e-06
8.3782865e-06
8.9342513e-06
5.198414e-07
2.3491019e-06
0.019976374
0.17173791
0.1668197
7.1987395e-06
7.3080488e-06
8.3917343e-06
3.2054591e-07
0.00042892459
0.017511295
0.1778064
0.16628983
7.4982475e-06
9.5589607e-05
8.1574254e-06
2.3714234e-07
0.0011169955
0.021558689
0.19018267
0.19860969
1.1879411e-05
0.00039663066
7.4249389e-06
0.0027345301
0.00079867651
0.053239243
0.2410296
0.17133791
3.5325943e-06
0.00040555592
0.00070878922
0.0022456967
9.0801287e-05
0.070056614
0.26039463
0.18709051
7.9854769e-06
0.00031368461
0.0013847002
0.00061421852
0.00019388043
0.068918423
0.33019145
0.19217083
1.938008e-05
0.0007684605
0.0017784732
0.00010679286
8.9577416e-05
0.079887502
0.33325767
0.22997553
0.00035981022
0.0018241278
0.0032115454
5.1414887e-06
1.4879799e-05
0.10021502
0.33506947
0.24447538
8.64329e-06
0.002295667
0.0032082078
2.3828842e-06
0.0029297112
0.14011087
0.33797519
0.29432759
0.0019317998
0.0022313304
0.0038296016
9.2789635e-06
0.0096179215
0.17326013
0.34122406
0.30673034
0.0026814497
0.00067735313
0.0029016821
1.1624442e-06
0.027458136
0.20567425
0.34400962
0.34757609
0.017083992
0.0018096024
0.0019496764
0.00039473812
9.0689544e-05
0.0089153057
0.11173794
0.076115908
2.0550157e-06
3.2120888e-05
0.00084678156
0.00069739354
9.0875125e-05
0.0091680089
0.11439343
0.082056078
2.5993439e-06
0.00018174947
0.0014658872
0.0003117298
9.2565609e-05
0.0088027539
0.10865907
0.07786403
7.985477e-06
0.00054909564
0.001460784
1.6998613e-05
2.5558268e-05
0.014018085
0.096657159
0.0826243
2.3721469e-05
0.00092918537
0.0018191687
1.0493696e-05
0.00050873281
0.014012829
0.083938211
0.077554697
3.8554987e-05
0.002244338
0.0040262002
4.4576623e-06
0.0059464793
0.014224714
0.094619042
0.082259488
8.9029992e-05
0.0033877944
0.0040273952
6.3718192e-06
0.0063929963
0.014193131
0.078559917
0.077746589
0.00014124187
0.0024200458
0.0040254826
1.423559e-05
4.1706783e-05
0.020661216
0.077444477
0.083432757
0.00072384271
0.0017995097
0.0040153335
0.00018954614
0.000434161
0.0004748273
2.2315363e-05
1.2698515e-05
7.1590133e-07
0.00035678228
0.0024710915
9.5513417e-05
0.00092214745
0.00042288606
0.00017772544
1.2280905e-05
1.1917961e-06
0.00081464994
0.0021885467
3.5742719e-05
0.00029502235
0.00023668376
1.2049916e-05
7.1798937e-05
0.00017483668
0.0012035021
0.00059703506
1.4389385e-05
1.5730355e-05
2.0096518e-05
0.00013435667
0.00011049806
0.00013060027
0.0011964557
0.00058792662
1.3967238e-05
0.00012027136
7.5521875e-05
0.00011259592
0.00019620506
0.00019908638
0.00017353501
0.00068149524
1.048765e-05
0.0015575904
0.00028154382
0.00028397442
0.00022378873
0.00019857515
6.2296135e-06
0.00011988975
9.2778388e-06
0.0043041396
0.00099126808
0.00090573934
0.0003640628
0.00016804731
4.6240219e-06
9.6139004e-06
4.2169781e-05
3.7219712e-05
0.00017924127
0.00081729207
0.00022121404
5.6658363e-05
3.3179846e-06
5.8573784e-06
2.9025421e-05
0.00057907898
0.00010575599
9.7211846e-08
3.7472279e-07
4.4213127e-07
1.8910912e-05
0.00075196553
0.00020286606
0.00097380798
0.00024145441
3.8914997e-07
1.8496613e-06
1.5683996e-06
2.2212176e-05
0.0015752195
8.6655666e-05
0.00097380798
0.00055925825
9.533195e-06
3.227035e-07
2.8768593e-07
9.884965e-05
0.0015736586
0.00022409682
0.00056005245
0.00039201861
3.4119252e-06
2.9416482e-06
4.0156491e-06
1.6309697e-06
0.0015083836
0.00016906786
0.00042211629
0.00057378931
2.2198697e-05
9.108881e-06
2.5627063e-06
0.0002606537
0.0011179323
7.5490101e-05
0.0014826682
0.00062195635
1.5072062e-05
1.1657914e-05
3.6909751e-06
0.00047158493
0.00074611951
1.0242015e-05
0.0040856733
0.00095781765
2.6695854e-05
1.6950264e-05
1.4613792e-05
1.1448917e-05
1.897014e-05
6.4151126e-05
0.0010007142
0.00039409094
1.7408755e-05
2.5654571e-05
1.2983113e-05
2.5525573e-06
3.4685251e-06
7.8858009e-09
0.000116972
4.3431819e-06
3.0678963e-10
8.6582014e-10
4.7715313e-09
4.5479268e-09
1.9605529e-05
0.00013581978
0.00048374944
5.0604438e-05
1.0767771e-08
1.2016357e-08
6.3795721e-08
2.2884098e-06
7.2742245e-05
0.0004750271
0.00063043406
0.00018540252
5.3881711e-07
9.2647812e-08
2.7668083e-07
2.4473108e-08
3.6785518e-05
0.00032316779
0.00048287761
0.00014561498
1.1901996e-07
9.4552866e-08
2.233909e-07
2.8293585e-07
2.2323653e-05
0.00012625757
0.00078531258
0.00022480862
2.3196499e-06
2.1740782e-07
2.4956759e-07
3.5929459e-06
7.6018655e-05
9.0619699e-05
0.0010112439
0.0004404158
3.3970828e-06
2.9755832e-07
2.7499668e-07
2.963165e-07
5.2584104e-05
0.0005527617
0.0015901544
0.0007967558
1.4232593e-05
3.6889831e-07
2.9740299e-07
3.5718742e-07
3.5763664e-05
0.00068913395
0.0015291026
0.00040892979
1.0585289e-05
4.2137925e-07
3.1042211e-07
3.2366244e-06
3.4656494e-05
5.8678396e-11
1.5301636e-07
1.3637753e-09
1.8323489e-12
8.6832352e-13
5.708078e-14
3.8583346e-09
2.6058227e-11
1.2323823e-05
1.723827e-05
1.6491203e-06
1.8402011e-10
3.3345347e-11
1.2555657e-12
1.9553973e-07
3.3045121e-06
0.00019766636
1.992109e-05
6.6096265e-07
5.4895524e-07
6.2144609e-08
7.0028326e-11
2.4569405e-08
1.1375554e-06
0.00029217182
9.7614975e-05
1.1895334e-07
6.4161941e-08
3.500612e-08
1.4353608e-08
6.0770406e-09
6.0770406e-09
0.0001353143
0.00035477128
3.3916638e-05
5.9310914e-06
8.9505921e-08
2.8887835e-07
6.0770406e-09
9.0391904e-08
0.00010716453
0.00035903431
0.00018114517
2.7153158e-05
8.8568974e-07
2.8618126e-07
2.1953541e-06
1.2458038e-05
0.00047000194
0.00012317194
0.00016401186
2.6258148e-05
1.0058603e-06
2.9545898e-07
5.1716745e-06
4.3889542e-07
0.00080802361
0.0001265306
6.2144084e-05
7.6362691e-06
7.2769308e-07
3.033662e-07
7.1307131e-06
1.1888208e-05
1.3469808e-13
1.7811069e-11
1.7297987e-12
1.3090637e-12
8.111364e-14
3.4361584e-14
8.5734199e-12
2.202228e-11
1.3668254e-11
5.1376772e-09
4.9523225e-07
1.7297987e-12
7.9601718e-13
1.2602158e-10
6.4785112e-11
1.6692876e-08
5.8641033e-06
1.5627813e-07
1.8510421e-05
4.9562198e-06
7.3773559e-09
1.7187465e-09
2.6819316e-10
2.0774949e-10
1.0802133e-05
2.0340832e-05
2.587415e-05
8.2424493e-06
5.8298717e-08
1.800998e-09
1.7443376e-07
7.3990322e-09
2.2194491e-05
1.5559744e-05
5.8397474e-05
2.1045533e-05
8.8343274e-08
4.1013585e-06
1.6819486e-06
3.4938364e-09
3.6608043e-05
6.7313668e-06
4.1780027e-05
2.4996643e-05
4.2075047e-07
1.1933722e-05
6.3848257e-06
3.0551466e-09
9.4124735e-05
9.8420488e-06
6.0504505e-05
2.8820039e-05
6.1857244e-07
1.8110288e-05
8.271751e-06
5.0244194e-11
0.00022991826
9.0031246e-06
9.0196699e-05
4.5595304e-05
7.6813398e-07
1.1989543e-05
5.99056e-06
1.2705236e-06
1.3084352e-15
5.3685384e-10
5.7088114e-11
9.2174403e-10
1.9970345e-12
3.2653553e-15
4.4828154e-17
3.1211288e-14
3.3301112e-09
7.0989356e-10
1.1216028e-05
9.5017834e-07
7.6627966e-10
4.7503432e-11
1.4601781e-13
3.3767815e-14
4.1866168e-10
1.4866111e-05
0.00014845118
2.3633778e-05
9.3266782e-10
9.5389004e-10
1.897061e-11
2.8818294e-11
9.6582395e-10
2.9922052e-05
0.0002148858
3.6444342e-05
1.6469464e-09
1.1386198e-09
1.7733428e-07
4.2435865e-09
8.4006219e-08
1.9656783e-05
1.2069693e-05
4.168903e-05
1.4549554e-06
1.4062817e-05
1.9522149e-06
3.7586234e-10
1.7004297e-06
5.9815033e-06
7.6195981e-06
1.5274346e-05
9.439998e-07
3.7129405e-05
5.2405548e-06
2.1202503e-12
2.0130273e-07
8.2659369e-06
0.00011450619
4.018378e-05
7.11669e-07
3.7905398e-05
4.842751e-06
3.6767726e-12
6.4747514e-08
5.827248e-07
0.00015441043
3.7251413e-05
5.3976912e-06
2.4072072e-05
4.0854552e-06
4.5949848e-11
1.1950869e-15
1.3081956e-15
9.3767098e-11
1.9355589e-12
1.9318273e-12
1.9784684e-16
2.9277053e-18
1.0732375e-17
2.182324e-08
1.1739238e-06
3.3146502e-05
2.0357494e-07
1.0024711e-10
1.2821527e-12
5.3728756e-18
5.7761767e-16
1.5269348e-10
2.9347722e-05
0.00021599049
6.9494211e-06
1.4873344e-09
1.9580274e-10
2.7197589e-10
1.9936919e-12
2.6867747e-10
2.5935912e-05
0.00021809294
5.2540132e-06
1.0832301e-09
6.4714876e-09
7.2611182e-08
2.8467732e-10
1.0598512e-09
2.748832e-05
0.00019516285
1.9018437e-05
1.9225429e-06
9.3100446e-06
5.7922696e-07
5.6763383e-13
8.8022175e-09
2.2721396e-05
0.00016289363
1.6761339e-05
1.4336082e-05
3.7905398e-05
1.3352892e-06
1.2284312e-12
1.1844381e-09
1.0595754e-05
0.00021786232
1.9836893e-05
3.7383428e-05
3.7905677e-05
7.2993237e-07
2.1202503e-12
1.4499922e-09
9.4589756e-06
0.0002177923
8.6141162e-06
1.4640844e-05
1.7836125e-05
9.8354183e-07
3.6767003e-12
1.0054233e-17
6.3604708e-15
2.0222688e-11
2.7837804e-10
1.0578616e-12
3.3737612e-19
3.6271829e-19
6.8989097e-21
8.2229097e-08
3.4903858e-06
3.557366e-05
1.3726058e-07
4.3693081e-13
6.7157995e-16
8.7918222e-14
2.7748696e-16
5.2860961e-07
5.2150282e-05
0.00021810551
3.3603527e-06
2.5848285e-12
3.8272724e-12
1.2011443e-10
1.875113e-13
1.300735e-06
5.391231e-05
0.00021822771
1.4709325e-06
1.126231e-11
4.2907606e-12
3.8189458e-09
8.9353809e-13
1.1212483e-06
7.3686657e-05
0.00021815005
1.0168056e-05
7.1531953e-06
1.9781827e-06
1.6325591e-08
5.6763385e-13
5.6750792e-11
0.0001025094
0.00021807562
2.2633194e-05
3.6934613e-05
2.2341881e-05
2.5744542e-08
5.6763385e-13
6.5130441e-10
0.00015566193
0.00021800632
1.5011832e-05
3.7711015e-05
2.7969931e-05
1.8837796e-10
1.115482e-09
1.1687877e-09
0.00014362499
0.00021786228
1.3408899e-06
1.118754e-05
3.6640423e-06
9.3224652e-09
3.1144782e-09
7.0967743e-18
3.2715847e-15
1.2815135e-09
4.6364487e-11
1.55652e-14
3.1559254e-20
4.7793224e-20
7.9163084e-23
4.2246145e-09
3.702891e-07
8.3494777e-06
6.4449495e-08
3.4578898e-12
1.3103873e-18
1.1708706e-14
1.9292322e-17
7.8920085e-07
3.1110139e-05
0.0001602622
2.2352498e-06
7.3593848e-11
1.6674517e-15
7.9771624e-12
1.8907411e-14
2.9508355e-06
7.2041026e-05
0.00021814973
2.5716943e-06
4.55163e-09
1.359809e-10
6.7003963e-12
1.8218989e-15
4.8887742e-06
0.00010143779
0.00021822283
8.846303e-06
8.4915e-06
5.6666241e-07
9.9097584e-13
1.1551962e-12
1.0978497e-06
0.00016151303
0.00021814998
2.351735e-05
3.7698371e-05
2.5820905e-06
3.2195795e-11
6.2609304e-11
1.1687889e-09
0.0002179049
0.00021807859
1.3150129e-05
3.7722683e-05
4.6741886e-06
1.2585167e-10
7.3923919e-10
2.6399055e-06
0.0002175866
0.00021798557
4.0457333e-07
1.4349526e-05
2.8582361e-10
1.8837795e-10
4.7549517e-09
3.220455e-18
8.1269487e-17
1.1422035e-10
7.4329426e-13
8.90891e-18
2.0765e-20
1.1425836e-22
3.8964518e-26
2.4336735e-15
3.4326037e-09
1.6055366e-07
3.7596926e-09
2.0734817e-12
2.7494012e-16
6.5601725e-17
4.8013002e-20
1.0297858e-07
3.4982931e-06
2.4224704e-05
4.0559705e-07
1.9614119e-10
6.5812982e-16
4.2416665e-14
2.7234982e-16
1.91016e-06
3.9613432e-05
0.00013414963
1.5947335e-06
3.2166897e-09
6.9321494e-10
3.1250857e-12
3.3485126e-17
4.4076708e-06
8.1225863e-05
0.00021331333
4.7905084e-06
5.0229139e-06
1.4498206e-07
7.8685247e-13
7.8724459e-13
5.1745334e-06
0.00012663103
0.00021807445
1.4216723e-05
3.0369268e-05
3.3144895e-07
3.6840755e-09
5.9574686e-11
5.2545659e-06
0.00020426315
0.00021800632
1.0152271e-05
3.7698371e-05
1.2106582e-08
2.3954877e-10
6.8808055e-11
1.1993564e-05
0.00021739517
0.00021781541
6.4666716e-07
2.9960446e-05
6.5487439e-10
9.0984526e-10
4.0669579e-09
1.3715482e-18
8.3939234e-15
2.4573442e-13
1.4837228e-15
2.6801105e-18
8.861674e-22
1.0332037e-26
1.7479767e-30
2.6114199e-18
1.6366791e-11
1.1870447e-11
9.2017475e-12
7.1898978e-14
3.5537511e-17
2.0268957e-20
6.6878796e-24
2.4322322e-14
1.0296667e-08
8.0443596e-08
4.7648844e-09
4.550072e-11
3.0144492e-14
4.5653752e-17
1.6713707e-19
1.3016419e-07
3.4961617e-06
1.7408166e-05
3.1238367e-07
6.1717599e-09
8.2112278e-11
1.2861582e-13
8.9461094e-19
5.7229901e-07
1.7360239e-05
6.9498714e-05
1.5361565e-06
9.0697777e-07
1.387386e-08
6.5400372e-12
1.428775e-13
1.5187621e-06
3.1019938e-05
0.00011932793
4.0544503e-06
1.0274591e-05
2.4403282e-07
3.4204587e-09
2.7800586e-11
5.127965e-06
8.1356068e-05
0.00016011042
6.3878131e-06
2.6104296e-05
1.3064021e-07
7.80328e-10
6.2520443e-13
1.4140399e-05
0.00016846089
0.00019751912
2.9185766e-07
2.8295238e-05
1.1683679e-07
8.5398285e-09
1.850574e-09
5.69983e-20
6.3964526e-17
2.2327941e-18
1.4906083e-18
3.8211082e-20
5.201587e-24
2.1547214e-29
8.9785768e-34
3.239911e-20
3.4966653e-17
4.2584702e-15
2.344346e-15
1.2262424e-16
1.5901492e-19
2.9711605e-23
7.449189e-27
1.2616714e-13
9.0561004e-14
7.5540454e-12
4.0940602e-14
2.8979594e-16
3.2676019e-14
2.2579698e-16
1.1315802e-21
3.9613072e-11
1.1707472e-09
1.2845057e-09
6.0928191e-09
1.6081095e-09
1.3327496e-11
8.8869383e-19
6.4368863e-20
1.9389588e-11
1.7396867e-08
1.003213e-06
1.269394e-07
1.6814583e-08
5.6375671e-13
1.7120514e-12
9.0747524e-15
1.1081324e-08
1.4404107e-07
6.5973128e-06
2.6504987e-07
3.5320788e-07
4.4113122e-08
9.3558901e-10
4.0345204e-12
5.2326148e-07
3.4026275e-06
2.3616076e-05
1.9926334e-06
2.7759473e-06
9.1667047e-08
5.7027908e-10
7.6414764e-13
3.4655913e-06
2.3765903e-05
5.4342022e-05
2.1634756e-06
2.6897955e-06
2.3907859e-07
1.9912507e-08
3.6847962e-10
3.4415324e-24
2.2585478e-21
2.8830634e-21
1.7765581e-21
3.2360804e-24
7.4081446e-28
2.472268e-32
4.9382e-37
1.8038074e-23
2.6635262e-17
2.2326832e-18
8.6861236e-17
2.4476158e-19
2.4444746e-23
7.6280683e-26
1.2305278e-29
2.1192708e-15
9.1325583e-15
2.9750388e-14
2.6541483e-14
1.2481458e-18
1.583923e-15
2.3772945e-17
4.8996105e-22
4.3003245e-14
2.9600513e-12
9.3457564e-12
2.7507969e-12
3.3961481e-11
6.2580722e-13
1.3281573e-16
2.812457e-22
3.0042176e-13
3.787885e-11
1.3608e-10
2.2192369e-11
1.0688767e-12
8.2017031e-15
2.5984466e-14
6.5051602e-17
8.0291715e-13
2.2127895e-10
8.3660103e-10
2.079996e-11
4.1020073e-11
5.5796675e-13
3.3806499e-11
1.9272759e-13
2.7980436e-11
8.1860252e-10
3.4383521e-09
4.9203216e-08
3.7415734e-10
9.5185072e-09
3.2686675e-11
3.0887042e-13
3.6424875e-10
3.046836e-09
9.4652129e-09
1.6214824e-06
2.3403622e-09
7.9262705e-08
1.33324e-08
9.5858797e-11
4.1377058e-30
2.9975485e-26
8.3952178e-23
1.8936272e-24
1.1691479e-27
4.6324532e-31
1.9088312e-35
2.15087e-40
8.91804e-27
4.3151473e-19
1.2982267e-17
3.7102461e-19
5.0006197e-22
3.3104687e-25
1.8355032e-28
1.7927437e-32
8.7675786e-19
2.7940441e-16
1.801178e-15
6.7093294e-16
9.2827616e-18
4.1970017e-18
1.3909908e-19
7.9400817e-24
3.6740115e-16
2.5624602e-15
6.631805e-14
2.6234577e-14
4.3325305e-14
3.4241189e-15