/*--------------------------------*- C++ -*----------------------------------*\
  =========                 |
  \\      /  F ield         | OpenFOAM: The Open Source CFD Toolbox
   \\    /   O peration     | Website:  https://openfoam.org
    \\  /    A nd           | Version:  13
     \\/     M anipulation  |
\*---------------------------------------------------------------------------*/
FoamFile
{
    format      ascii;
    class       volScalarField;
    location    "0.02";
    object      p;
}
// * * * * * * * * * * * * * * * * * * * * * * * * * * * * * * * * * * * * * //

dimensions      [1 -1 -2 0 0 0 0];

internalField   nonuniform List<scalar> 
51200
(
1.4131109
1.39934
1.3913397
1.3882196
1.3882068
1.3913031
1.3992851
1.4130443
1.403061
1.3898799
1.3825745
1.3797925
1.37978
1.3825385
1.3898252
1.4029937
1.393715
1.3813704
1.3747148
1.3722184
1.3722062
1.3746793
1.3813162
1.3936476
1.3861064
1.3746586
1.3686341
1.3663822
1.3663702
1.3685993
1.3746051
1.3860392
1.3796908
1.3691222
1.3637168
1.361681
1.3616693
1.3636827
1.3690698
1.3796243
1.3740979
1.3643753
1.3595665
1.3577248
1.3577135
1.3595332
1.364324
1.3740325
1.3692045
1.3602592
1.3560201
1.354357
1.354346
1.3559876
1.3602092
1.3691404
1.3649767
1.3565957
1.3529319
1.3514396
1.3514289
1.3529004
1.3565472
1.3649142
1.32603
1.3252585
1.3247621
1.3242404
1.3242267
1.3247233
1.3251999
1.3259573
1.3270277
1.3263779
1.3258698
1.3253508
1.3253375
1.3258317
1.3263199
1.3269545
1.32814
1.3276697
1.3271553
1.3266346
1.3266217
1.3271179
1.3276125
1.3280667
1.3292758
1.328962
1.3284379
1.3279159
1.3279033
1.3284014
1.3289059
1.329203
1.33043
1.3302082
1.329671
1.3291517
1.3291394
1.3296354
1.3301534
1.3303582
1.3315534
1.3313535
1.3308044
1.3302938
1.3302819
1.3307697
1.3313001
1.3314828
1.3325934
1.3323572
1.3318004
1.3313047
1.3312932
1.3317667
1.3323055
1.3325244
1.3334483
1.3331549
1.3325933
1.3321144
1.3321031
1.3325608
1.3331047
1.3333813
1.3275355
1.3262806
1.3255406
1.3251736
1.3251575
1.325494
1.3262108
1.3274493
1.3278371
1.3265977
1.3259129
1.3255568
1.3255411
1.3258673
1.3265288
1.3277503
1.3281449
1.3269339
1.3263087
1.3259613
1.325946
1.3262639
1.326866
1.3280579
1.3282936
1.3271251
1.3265664
1.3262333
1.3262185
1.3265227
1.3270585
1.3282068
1.3283182
1.3272142
1.3267244
1.3264102
1.3263958
1.3266816
1.3271491
1.3282321
1.3282811
1.3272546
1.3268321
1.3265411
1.3265271
1.3267905
1.3271911
1.3281961
1.3281839
1.327246
1.326895
1.3266334
1.3266199
1.3268545
1.3271843
1.3281004
1.3278702
1.3271143
1.3268574
1.3266361
1.326623
1.3268183
1.3270545
1.3277889
1.3174012
1.3171434
1.3171789
1.317259
1.3172387
1.3171206
1.3170571
1.3172961
1.3175895
1.3173794
1.3174244
1.3174837
1.317464
1.3173674
1.3172944
1.3174837
1.3177854
1.3176193
1.3176787
1.3177195
1.3177004
1.317623
1.3175358
1.3176794
1.3179634
1.3178334
1.3179108
1.3179389
1.3179204
1.3178564
1.3177514
1.3178576
1.3181292
1.3180339
1.3181317
1.3181516
1.3181336
1.3180786
1.3179536
1.318024
1.3182955
1.318233
1.3183512
1.3183665
1.318349
1.3182994
1.3181545
1.3181913
1.31846
1.3184361
1.3185743
1.318589
1.3185721
1.3185239
1.3183597
1.3183573
1.318558
1.3186558
1.3188121
1.3188333
1.3188169
1.3187631
1.3185813
1.3184575
1.3117256
1.3115369
1.3116564
1.3118445
1.3118177
1.3115801
1.3114256
1.3115914
1.3118238
1.31167
1.3118004
1.3119656
1.3119396
1.3117259
1.3115604
1.3116889
1.3119314
1.3118103
1.3119543
1.312099
1.3120737
1.3118816
1.3117025
1.3117962
1.3120223
1.311929
1.3120905
1.3122207
1.3121962
1.3120194
1.3118232
1.3118873
1.3120992
1.3120324
1.3122147
1.3123358
1.312312
1.3121454
1.3119286
1.3119649
1.3121695
1.3121278
1.3123336
1.3124495
1.3124263
1.312266
1.3120262
1.3120362
1.3122291
1.3122218
1.3124536
1.3125685
1.3125461
1.3123877
1.3121224
1.3120974
1.3122488
1.3123512
1.3126075
1.3127271
1.3127054
1.3125434
1.3122541
1.3121196
1.3063599
1.306254
1.306431
1.30665
1.3066141
1.3063307
1.3061095
1.3061879
1.3064207
1.3063443
1.306529
1.3067252
1.3066903
1.306431
1.306202
1.3062479
1.3064876
1.3064387
1.306633
1.3068087
1.3067748
1.3065374
1.3062988
1.3063143
1.3065484
1.3065219
1.3067277
1.3068882
1.3068552
1.3066344
1.3063844
1.3063752
1.3066046
1.3065977
1.306817
1.3069666
1.3069346
1.3067258
1.3064626
1.3064321
1.30666
1.3066698
1.3069043
1.3070465
1.3070153
1.3068152
1.3065371
1.3064886
1.3067119
1.3067429
1.3069939
1.3071322
1.307102
1.3069069
1.3066126
1.3065421
1.3067428
1.3068444
1.3071098
1.3072493
1.3072199
1.307025
1.3067166
1.3065756
1.3015389
1.301443
1.3015967
1.3017829
1.3017349
1.3014632
1.3012538
1.3013167
1.3015756
1.3014992
1.3016608
1.3018284
1.3017817
1.3015303
1.3013128
1.3013522
1.3016158
1.3015582
1.3017288
1.3018795
1.3018341
1.3016014
1.3013747
1.3013917
1.3016526
1.3016107
1.3017916
1.3019294
1.3018851
1.3016671
1.3014301
1.3014283
1.301687
1.3016597
1.3018519
1.3019801
1.301937
1.3017302
1.3014819
1.3014632
1.3017217
1.3017082
1.3019126
1.3020339
1.301992
1.3017937
1.3015332
1.3014989
1.301756
1.3017601
1.3019769
1.3020941
1.3020532
1.3018606
1.3015879
1.3015348
1.3017782
1.3018336
1.3020599
1.3021767
1.3021369
1.3019463
1.3016642
1.3015599
1.2969618
1.2968669
1.2969878
1.2971263
1.297062
1.296811
1.2966225
1.29668
1.2969841
1.2968994
1.2970282
1.2971528
1.2970899
1.2968553
1.296658
1.2967004
1.2970081
1.2969336
1.2970715
1.2971831
1.2971216
1.2969024
1.2966956
1.2967231
1.2970306
1.2969649
1.2971122
1.2972136
1.2971536
1.2969469
1.2967302
1.2967449
1.2970522
1.2969953
1.2971525
1.297246
1.2971874
1.2969908
1.2967638
1.2967663
1.2970748
1.2970273
1.2971943
1.2972818
1.2972247
1.2970362
1.2967988
1.2967893
1.2970981
1.2970639
1.2972398
1.2973233
1.2972676
1.2970851
1.2968383
1.2968135
1.2971129
1.2971163
1.2972977
1.2973799
1.2973259
1.2971465
1.2968936
1.2968307
1.2925118
1.2924073
1.2925027
1.2925969
1.2925162
1.2922583
1.2920858
1.2921509
1.292526
1.2924214
1.2925253
1.2926095
1.2925304
1.2922853
1.2921025
1.2921603
1.2925389
1.2924364
1.29255
1.2926246
1.2925473
1.2923147
1.2921214
1.2921702
1.2925512
1.2924511
1.2925746
1.2926413
1.2925655
1.292345
1.2921403
1.2921807
1.2925637
1.2924674
1.2926005
1.2926609
1.2925867
1.2923775
1.292161
1.2921921
1.2925775
1.2924875
1.2926294
1.2926847
1.2926122
1.2924133
1.2921853
1.2922058
1.2925935
1.2925139
1.2926628
1.2927143
1.2926434
1.2924533
1.2922158
1.2922221
1.292604
1.2925539
1.2927054
1.2927554
1.2926862
1.2925024
1.29226
1.2922353
1.2881065
1.2879851
1.2880698
1.2881463
1.2880342
1.2877442
1.2875761
1.287674
1.2881137
1.2879827
1.2880774
1.2881462
1.2880342
1.2877532
1.2875869
1.2876731
1.2881191
1.2879803
1.2880865
1.2881478
1.2880367
1.2877667
1.2875905
1.2876722
1.2881247
1.2879804
1.2880984
1.2881529
1.2880455
1.2877871
1.2875924
1.2876722
1.2881311
1.2879851
1.2881144
1.288163
1.288061
1.2878144
1.2875994
1.2876736
1.2881396
1.2879965
1.288136
1.2881793
1.2880831
1.2878484
1.287614
1.2876775
1.2881517
1.2880175
1.2881643
1.288203
1.2881118
1.2878888
1.2876384
1.2876859
1.2881632
1.2880532
1.288202
1.2882363
1.28815
1.2879381
1.287677
1.2876963
1.2837543
1.2835321
1.2836419
1.2837425
1.283653
1.2828887
1.2832304
1.2830804
1.2837679
1.2835082
1.283634
1.2837262
1.2836341
1.2829221
1.2831121
1.2830624
1.2837444
1.2834827
1.2836278
1.2837116
1.2836212
1.2830015
1.2829544
1.2830393
1.2837244
1.2834655
1.283629
1.283706
1.2836255
1.2831004
1.282939
1.283034
1.2837095
1.2834585
1.283639
1.2837099
1.2836436
1.2832015
1.2829366
1.2830308
1.2837006
1.2834638
1.283659
1.2837249
1.2836711
1.2832922
1.2829533
1.2830326
1.283701
1.2834853
1.2836902
1.2837509
1.2837061
1.2833736
1.2829881
1.2830418
1.2837108
1.283527
1.2837351
1.2837916
1.2837502
1.2834503
1.2830446
1.2830598
1.2793514
1.2790004
1.2790861
1.2793703
1.2783918
1.2776317
1.278863
1.2785208
1.2793772
1.2789343
1.2790538
1.2793073
1.2785744
1.2781795
1.2796167
1.278549
1.279342
1.2788678
1.2790278
1.2792554
1.2787735
1.2784724
1.2781417
1.2785161
1.279303
1.2788249
1.2790248
1.2792277
1.2790125
1.278684
1.278093
1.2784612
1.2792745
1.2788026
1.2790456
1.2792299
1.2792423
1.2788144
1.2781102
1.2784188
1.279255
1.2788029
1.2790884
1.2792575
1.2794254
1.2789256
1.2781617
1.2783945
1.2792492
1.2788377
1.2791455
1.2793056
1.2795593
1.2790389
1.2782221
1.2783851
1.2792621
1.2788999
1.279226
1.2793773
1.2796524
1.2791619
1.2783276
1.2783964
1.2787027
1.2747289
1.2743369
1.2747944
1.2726279
1.3020173
1.272206
1.2731123
1.2751565
1.2740496
1.2742423
1.2747421
1.2743075
1.2998485
1.2721306
1.2731885
1.2748386
1.273923
1.2742292
1.2747219
1.2754357
1.2846462
1.2728054
1.2731675
1.2745126
1.2738599
1.2742195
1.2747348
1.2762547
1.2797015
1.2722407
1.2731696
1.2743684
1.273839
1.2742751
1.2748619
1.276617
1.2788413
1.2721732
1.2731836
1.2742872
1.273859
1.2743742
1.2750074
1.2768091
1.2781441
1.2726968
1.2732335
1.2742671
1.273927
1.2745109
1.2751554
1.2769116
1.2775947
1.273136
1.2733145
1.2743192
1.2740508
1.2746746
1.2752922
1.2769449
1.2771394
1.2735699
1.2734344
1.2701449
1.2690229
1.2674675
1.272922
1.3480022
1.298915
1.2645225
1.2710598
1.2687997
1.2686469
1.2676167
1.2749747
1.3436448
1.2821213
1.2641065
1.2687824
1.268559
1.2684443
1.2678896
1.2706802
1.2964102
1.295838
1.2651777
1.2684696
1.2685155
1.2683937
1.268276
1.2690324
1.2879522
1.2674411
1.2661923
1.268299
1.2685079
1.2683783
1.2686572
1.2695026
1.2866022
1.2667822
1.266107
1.2682404
1.2685607
1.2684334
1.2690917
1.2700557
1.2846104
1.2680108
1.2665472
1.2681384
1.2686701
1.2685883
1.26953
1.2706189
1.2826856
1.2690578
1.2671757
1.2681053
1.2688551
1.2688536
1.2699464
1.2711204
1.2808729
1.2691031
1.2677463
1.2681974
1.2686115
1.262056
1.260845
1.2552089
1.3171791
1.2707418
1.2591172
1.2644995
1.2602293
1.2618041
1.2613897
1.2571783
1.3142338
1.2736813
1.258815
1.2642089
1.2594828
1.2614767
1.2604556
1.2623358
1.3110387
1.2650372
1.2589335
1.2638293
1.2598457
1.2614901
1.2630358
1.2735144
1.2857249
1.2527887
1.259035
1.2635123
1.2603204
1.2618194
1.2656849
1.2605931
1.2769676
1.2496401
1.2590803
1.2632098
1.2609148
1.2619064
1.2625892
1.2643414
1.2737671
1.2519995
1.2592605
1.2629237
1.2615548
1.2622647
1.2636893
1.2668228
1.2723239
1.2529718
1.259573
1.2626505
1.2621498
1.2628009
1.2645151
1.2679539
1.2714352
1.2551687
1.2600263
1.2625375
1.2647506
1.2559677
1.2510394
1.3080937
1.3092329
1.2576147
1.2855447
1.3366824
1.2526444
1.2534792
1.2539388
1.2898285
1.2697951
1.2570272
1.2555456
1.2628341
1.2526925
1.252487
1.2547184
1.2731928
1.2634122
1.2593086
1.2557356
1.2618203
1.253363
1.2532758
1.2849996
1.2554319
1.2631568
1.2608789
1.2558133
1.2610393
1.2541221
1.2540523
1.2541699
1.2595493
1.2594003
1.2679179
1.2560581
1.2604207
1.2547774
1.2540026
1.2553182
1.2667581
1.2611095
1.2584041
1.2564704
1.2600246
1.255261
1.2543802
1.2573688
1.2704887
1.2616903
1.2522458
1.2573987
1.2597291
1.2555215
1.2550956
1.258883
1.2717418
1.2628228
1.2541269
1.2574093
1.2595352
1.2495026
1.2420422
1.2275129
1.5955507
1.2790822
1.2274738
1.280482
1.3322163
1.2490848
1.2369642
1.2203372
1.7098819
1.2912017
1.2258531
1.2516064
1.2656662
1.2491557
1.2364824
1.2346424
1.7965885
1.2834686
1.2293421
1.2494053
1.2629732
1.2486411
1.2400726
1.2451207
1.4264837
1.3274347
1.2376017
1.2474098
1.2610318
1.2483101
1.2440706
1.2413376
1.3433823
1.2022061
1.2607617
1.2477936
1.2595774
1.2485091
1.2478246
1.2429471
1.3709406
1.2160335
1.2424654
1.2483967
1.25832
1.2490285
1.2506782
1.2502679
1.3675922
1.2352227
1.2463329
1.2492865
1.2572439
1.2496174
1.2524679
1.2580258
1.3669976
1.2487916
1.2498886
1.2500882
1.2563593
1.2562615
1.2382803
1.1665894
1.9103294
1.3659028
1.2325829
1.2462078
1.2675838
1.2524099
1.2342279
1.1894746
1.8937132
1.3725181
1.2374549
1.2460633
1.2615694
1.2401784
1.2303107
1.2410432
1.9119569
1.4094551
1.2367104
1.2437793
1.260277
1.2363384
1.2360345
1.1902469
1.8887539
1.448848
1.2436597
1.2427498
1.2563031
1.236824
1.2392769
1.209511
1.8537442
1.2289288
1.2499986
1.2442732
1.2548489
1.237322
1.239293
1.2351077
1.8555647
1.2368892
1.2539444
1.2464258
1.2534529
1.2374307
1.2380569
1.2537353
1.8941053
1.2802239
1.2558363
1.2484672
1.2524352
1.2379525
1.2389752
1.2720306
1.8984678
1.2908453
1.2571512
1.2501878
1.251921
1.2277857
1.2662335
1.1629687
1.710619
1.2819648
1.1801641
1.2439333
1.2624219
1.2250551
1.2608405
1.0838842
2.0953628
1.2800157
1.1731978
1.2324983
1.2601414
1.2209331
1.2524028
1.1494774
1.5576037
1.44132
1.1746184
1.2313533
1.2485077
1.219008
1.2477981
1.2275024
2.4849933
1.5312313
1.2393769
1.2286146
1.2459047
1.2178327
1.2517989
1.2383187
2.0858659
1.5037068
1.5168352
1.2321105
1.2440081
1.2179564
1.2476055
1.2690658
1.7485181
2.0156588
1.264616
1.2285363
1.2428374
1.2183636
1.2369001
1.1667207
2.0496595
1.8902422
1.2373521
1.2360263
1.2424224
1.2197924
1.2313164
1.2288434
2.0065809
1.4304938
1.2745758
1.2443263
1.2438242
1.2024452
1.2041178
1.3085819
1.610814
1.4323957
1.2120893
1.2578404
1.3022977
1.2022801
1.2212298
1.3687631
1.6730336
1.5475117
1.1719494
1.2447927
1.3675408
1.2003318
1.2092503
1.229475
1.4550465
1.8021846
1.31243
1.2604165
1.2330041
1.1980265
1.2148321
1.5233127
1.4050068
1.7148774
1.3493726
1.2885627
1.2305255
1.1973859
1.2236975
1.1244732
1.4031903
1.8376797
1.293948
1.4262779
1.2393162
1.1977261
1.2174003
1.1647687
1.2876221
2.0925058
1.300077
1.2181349
1.2454494
1.19834
1.2154571
1.2199471
1.8971481
2.1563482
1.1891613
1.2315304
1.2418115
1.2011987
1.2197394
1.2422954
1.4970452
1.1992741
1.2303689
1.2327151
1.2407369
1.1951495
1.1784224
1.4329173
2.5192318
1.8873094
1.2999153
1.2194989
1.2841698
1.1901606
1.1543814
2.0369166
1.321676
3.0204386
1.5270984
1.2271199
1.2787227
1.1889973
1.1879712
1.2564757
1.0367048
0.37967559
1.2736438
1.2238839
1.2751118
1.1920697
1.1962031
0.99115241
1.8043182
1.8204223
1.3114779
1.2104759
1.2683236
1.1940403
1.2085107
1.132143
1.3147488
2.6539336
1.3452736
1.2173359
1.2607424
1.1965752
1.217667
1.1895757
1.2570322
1.1367414
1.3716817
1.2250321
1.2548734
1.2003215
1.2206461
1.2063276
1.4065817
1.3388916
1.4303976
1.2328403
1.2505974
1.2047241
1.2206404
1.2091848
1.2306677
1.3461536
1.386113
1.2428918
1.2478287
1.0897009
1.1855756
0.76936473
4.9318057
1.0440135
1.4090044
1.1552075
1.31606
1.0899908
1.076916
0.92756062
7.0353113
3.1101866
1.329014
1.1390089
1.3013354
1.0956537
1.1444618
1.7058052
5.7178572
1.6016598
1.2720672
1.2018999
1.2915834
1.1006864
1.1929461
1.0922632
5.8938645
9.0807928
2.2963627
1.2294077
1.2873535
1.1039062
1.2011121
1.0716586
3.9830921
1.7671431
1.6279443
1.6831223
1.2812797
1.1084173
1.2098249
1.2398059
3.9738444
2.9257175
7.6630948
1.1583234
1.2752812
1.116738
1.2072378
0.98655341
4.3431979
2.2525879
1.7485844
1.4009908
1.2847531
1.1294609
1.204016
1.1110711
4.2599981
1.315347
1.2545759
1.4000935
1.303244
1.3354586
1.0917106
2.2161286
10.721399
1.5935492
1.2073347
1.3319046
1.6847391
1.3022668
1.0834881
0.70896884
4.4794207
1.15834
1.1957668
1.3174736
1.6186513
1.391031
1.2193108
5.0330822
5.0476171
5.0351262
1.3015263
1.2992226
1.5321764
1.3857786
1.3550635
3.3528017
5.2778182
1.5227307
1.3207165
1.2444785
2.0771776
1.3619487
1.1374196
1.2865488
5.8906265
1.4357732
1.2099768
1.270013
1.4221789
1.3047868
1.1842905
1.2449229
5.9556423
1.4420955
1.1023984
1.1467787
1.3237225
1.2502481
1.1784634
1.8143034
6.1280067
3.4268686
1.1896472
1.105184
1.2354994
1.2160827
1.2146514
2.2694991
6.0196879
2.9135721
1.4154716
1.1185333
1.2184314
1.5652983
1.1133782
0.89127012
0.51277476
4.1136048
1.1296632
0.91713272
1.8293107
1.6908061
1.0284608
0.85983204
0.17873656
2.6803477
0.96490887
0.79985006
1.6594767
1.5565692
1.6869406
1.1386595
0.19429268
2.8400788
0.83348017
0.78669512
1.432456
1.4323362
1.0596343
0.7860689
0.25928253
2.6199164
0.69314462
0.76881396
1.3266093
1.3195371
1.0665662
1.0786402
0.39495481
0.24412474
0.57974539
0.78570632
1.3899694
1.3824561
1.0882201
1.0518957
0.66998765
0.46345948
0.55029782
0.81163899
1.1766237
1.2067149
1.0779094
1.074797
0.87053232
1.4429169
0.63345344
0.85039449
1.0665975
1.1346872
1.0507505
1.0538707
1.0366631
1.2819803
0.71911582
0.89004028
1.0350352
1.9316074
0.73207808
0.4575506
23.323222
22.029971
-0.12016222
0.98317176
1.0887627
0.99280583
0.67146406
0.17582895
24.090583
22.568415
-0.05664903
0.56855039
1.0026119
0.98443878
0.61469645
1.533531
26.720277
20.035983
0.34386137
0.49519505
0.90506584
0.94097216
0.90316109
1.8646963
24.965997
24.437655
0.66568855
0.54905303
1.051623
0.90260063
1.1047451
2.1211659
20.442762
30.028789
0.98430101
0.58343093
1.0927292
0.92165926
1.252343
1.7252867
21.366605
31.872014
1.3642119
0.58781357
0.9875829
0.93185051
1.2162844
0.62273416
21.595266
22.589926
1.5944839
0.58887433
0.9562291
0.95950161
1.1083341
1.1921245
24.82723
33.568559
1.9919134
0.76269388
0.96660598
1.149623
2.0759319
5.9058654
53.263705
21.788287
0.36961867
1.0790495
1.0619229
0.78334873
1.1608002
6.0950772
55.687271
21.513629
0.077772945
1.0879905
0.57374983
0.85465137
1.3681338
0.96691396
97.140335
24.80103
0.44114484
0.79840924
0.63873775
0.8316736
1.5448075
1.4052746
103.2914
33.608063
0.74949783
0.47140747
1.2310431
0.76011288
2.2205347
6.8586741
100.9093
39.315269
1.3151599
0.90894106
1.0649688
0.81929228
3.3799135
12.123963
102.3888
57.879342
3.0029719
0.95475139
1.8410764
0.97481062
4.381611
21.320882
105.70241
63.555592
5.3616812
1.2685056
1.028117
1.2037969
4.4240417
32.584473
106.45538
80.737102
5.3658275
1.1868938
1.0484944
1.0077901
0.69175061
1.1074632
21.066962
14.235759
0.099102078
1.1691114
0.90832219
1.0911511
0.55213932
0.92524118
21.109132
14.766807
0.049714961
0.89834654
0.52951845
0.7617503
0.54092907
1.2912996
13.531844
12.351913
0.20934963
0.70754235
0.53451713
0.71889364
0.99510268
1.8762955
6.2094589
12.237843
0.26810654
0.58240063
0.61630047
0.67636247
1.2407319
1.7582484
7.4727817
9.9302513
0.23724852
0.22986092
1.5164635
0.91576233
3.9882508
1.379908
9.8503306
9.9162862
0.14009184
1.0583529
1.6780329
1.2970897
2.289208
1.0111175
4.7495047
8.6123383
0.097062169
0.3574604
1.6425491
1.7386281
0.001976853
1.2770958
3.2326148
9.6104634
0.10470098
0.33488804
1.7247317
0.69802393
1.3872053
0.49220589
0.61917791
0.44166775
0.43360162
0.49286639
1.9382794
0.67057067
1.7515766
0.44610224
0.5680525
0.34279831
0.4181946
0.12291576
1.5458099
0.69999333
0.98222558
0.39616484
0.57888544
0.32437582
0.41555021
0.74174684
1.3644742
0.70824128
1.369301
0.39241372
0.58324565
0.33608024
0.41423425
0.5909656
1.208264
0.70081446
1.2646731
0.34134415
0.51781577
0.33325936
0.45792331
0.70977021
0.9019925
0.70771313
1.4596051
0.17628892
0.3980931
0.32025456
0.46544911
0.77030804
0.87836233
1.0447226
5.7478066
-0.11824862
0.37451974
0.3044339
0.42918727
0.73479633
0.83014998
1.4725778
-0.30848763
-0.61284944
0.38342955
0.29806145
0.42634315
0.69388888
0.76756738
0.39636136
1.1333902
0.71114025
0.62552147
0.4421314
0.34966007
0.62409905
1.1396329
0.49542751
1.3913595
0.56716195
0.60901712
0.44079964
0.3394517
0.55497083
0.70051811
0.45236316
1.2215385
0.617187
0.61493996
0.43972269
0.3364854
0.54281729
0.83237617
0.50478189
1.4727826
0.58941798
0.64204552
0.42910885
0.34295844
0.54650691
0.75422455
0.45773935
1.6087625
0.54939371
0.65085952
0.40825343
0.34300092
0.52222943
0.66212725
0.38687905
1.5356382
0.47690283
0.63667589
0.38131095
0.32263559
0.90685187
0.61699311
0.58139575
5.7476559
0.50428863
0.58312146
0.35569609
0.31543631
0.39960005
0.99957114
0.78537805
0.39743498
-0.064409866
0.54560949
0.34384154
0.31107007
0.39852501
0.79583639
0.55259292
0.95643949
0.57746357
0.53234245
0.44866924
0.40732543
0.48394356
0.5039906
0.49177913
0.76662834
0.53437602
0.53282754
0.45392729
0.40680139
0.47439116
0.49935435
0.85571696
0.83336467
0.56717982
0.5368655
0.45745136
0.40619058
0.47100017
0.49392736
0.59740464
0.7817501
0.55804797
0.54202429
0.45803795
0.40453059
0.47035091
0.50358737
0.65636657
0.82921644
0.53928045
0.54294863
0.45569191
0.40208741
0.46863754
0.49914368
0.73665441
0.91775693
0.55071112
0.53371
0.45152777
0.39957906
0.46441408
0.49874798
0.70309479
1.3843688
0.93426419
0.51544527
0.44765826
0.3979588
0.46036129
0.50051458
0.83018952
1.3942352
0.49760345
0.50471099
0.44629449
0.39723549
0.4518363
0.4942619
0.50795997
0.55966953
0.52609749
0.48683056
0.46131503
0.44421494
0.48774019
0.47868298
0.50346691
0.554941
0.52704706
0.48804417
0.46375935
0.44340756
0.48442882
0.47662751
0.52582153
0.55225112
0.52948039
0.48880733
0.46613352
0.4425942
0.48186912
0.47347192
0.69437377
0.5095352
0.52673381
0.48825287
0.46767592
0.44190612
0.47927008
0.47711736
0.6417552
0.68442536
0.50275823
0.48630547
0.46832252
0.44144812
0.47603147
0.48074297
0.65812358
0.67708148
0.5902027
0.49358504
0.4687677
0.44140557
0.47172429
0.48912641
0.62182151
0.71223265
0.55863095
0.49142558
0.46866235
0.44235687
0.46769843
0.48853524
0.68615613
0.64714944
0.48173787
0.47580099
0.46791782
0.44452977
0.46616058
0.4866722
0.44564916
0.45931032
0.48838896
0.45831452
0.45606841
0.46244153
0.48048576
0.47979561
0.44860887
0.4630489
0.48861245
0.4587473
0.4572274
0.46148413
0.47914317
0.47997239
0.45445178
0.46490137
0.48986572
0.45946743
0.45826255
0.46063042
0.47797861
0.48024266
0.45742117
0.4759528
0.48724238
0.45946535
0.45881776
0.45990879
0.47709288
0.48066155
0.46048931
0.46978265
0.49358356
0.45975962
0.45880318
0.45922631
0.47635713
0.48105324
0.45191941
0.47386262
0.48764504
0.45948314
0.4578094
0.45983521
0.47765919
0.48164704
0.45060126
0.4737172
0.47873538
0.45903952
0.4556737
0.4665357
0.47852525
0.4829662
0.49566942
0.46230363
0.50227701
0.46656913
0.4531181
0.45921984
0.47600332
0.48227413
0.45057033
0.39477359
0.68625184
0.47414322
0.45983375
0.47122273
0.46911421
0.47261532
0.44934049
0.40644505
0.67701133
0.47108112
0.46059824
0.47048823
0.46890005
0.47252033
0.44859521
0.42408143
0.71548635
0.47307369
0.46076202
0.46995063
0.46870743
0.47243936
0.44966298
0.44214429
0.82133559
0.47730015
0.46001513
0.46971185
0.46858621
0.47233029
0.45157913
0.44060024
0.58945671
0.48079037
0.45786832
0.46930517
0.46924291
0.4721605
0.45044449
0.44076511
0.60792265
0.48689657
0.45509293
0.47622058
0.47136115
0.47209155
0.44755811
0.43729212
0.48228548
0.45532693
0.45002756
0.47871949
0.46977912
0.47213866
0.4421846
0.43529517
0.57062254
0.45041351
0.44430096
0.45936367
0.4696324
0.47225919
0.43040676
0.40139234
0.55930789
0.44670432
0.44435508
0.45800621
0.45544602
0.4594587
0.42934595
0.40745366
0.53858293
0.44512097
0.4442598
0.45755164
0.45534872
0.45930675
0.42846585
0.43325424
0.55234174
0.44743773
0.44368106
0.45715181
0.45518605
0.45912344
0.42845898
0.42503952
0.56019593
0.44470894
0.4427083
0.45680862
0.45502349
0.45891835
0.42939511
0.42873339
0.51490476
0.44643845
0.4417185
0.45657768
0.45506153
0.45866559
0.43014228
0.43014417
0.53848448
0.44558648
0.43941661
0.47240889
0.45470248
0.45837389
0.43005796
0.43183951
0.56300991
0.44169558
0.46584677
0.47161715
0.45472889
0.45814163
0.42945596
0.43801856
0.55484162
0.43765633
0.43666914
0.45116283
0.45529622
0.45797024
0.42311016
0.41632284
0.53733764
0.44412152
0.45186005
0.44480261
0.44778537
0.44984698
0.42307722
0.41986347
0.51438254
0.44263079
0.45171102
0.44496744
0.44754489
0.44974601
0.42223548
0.44680328
0.52707825
0.44411256
0.45154389
0.44506009
0.44724829
0.44960674
0.42254648
0.44597702
0.5319444
0.44137684
0.4515409
0.44503715
0.44684974
0.44943278
0.4229442
0.45152839
0.52913728
0.44046383
0.45112789
0.44490908
0.44624293
0.44920824
0.4218911
0.45790934
0.52990514
0.44269399
0.45584671
0.45752743
0.44583336
0.44892907
0.42330597
0.50790256
0.53333698
0.43863615
0.45834822
0.46316943
0.44608935
0.44867035
0.42866286
0.48544914
0.53339765
0.43732183
0.43202204
0.44329233
0.4462569
0.44839123
0.42120091
0.42397692
0.50386239
0.43793609
0.44862805
0.43574201
0.44091499
0.44106527
0.42183867
0.42766482
0.49789371
0.43688133
0.44853822
0.43595862
0.44069763
0.44105376
0.42197843
0.43550818
0.50479158
0.43761543
0.44851923
0.43606278
0.44043775
0.44102204
0.42145973
0.44696799
0.51739299
0.43679408
0.44831295
0.4361011
0.44005666
0.44097358
0.41992381
0.45530789
0.52180488
0.43422398
0.44668456
0.43614144
0.4395704
0.44089578
0.4165561
0.47460617
0.52553854
0.43847964
0.45448234
0.4368182
0.43905859
0.44077869
0.41997136
0.53758929
0.5289563
0.43369438
0.45462803
0.43742873
0.43866147
0.44061459
0.43235159
0.51970965
0.53400335
0.43288936
0.43328988
0.43479152
0.43840324
0.4403654
0.42173851
0.42714118
0.47821175
0.4322596
0.43919584
0.43094924
0.43400595
0.43370937
0.42224362
0.42971793
0.47765384
0.43161981
0.43920763
0.43109187
0.43393207
0.43373063
0.42286326
0.43202744
0.47813004
0.43112456
0.43907144
0.43117527
0.43383081
0.43374037
0.42343472
0.43872639
0.48320994
0.43088935
0.43874552
0.43119775
0.43367002
0.43373577
0.42228614
0.44877755
0.49945533
0.43003584
0.43737202
0.43120913
0.43342355
0.433715
0.42012417
0.46032973
0.50784734
0.43004737
0.43507644
0.43077489
0.43303519
0.43366759
0.42096523
0.50242452
0.51259943
0.42862599
0.44488014
0.43042199
0.43266755
0.43358975
0.42780369
0.50765493
0.51762271
0.42759745
0.4324598
0.4309305
0.43239627
0.43343974
0.42168059
0.42975003
0.45596637
0.42826968
0.44185416
0.42576409
0.42887328
0.42733277
0.42216589
0.4313222
0.45558045
0.42800332
0.44185083
0.42614179
0.42889106
0.42741839
0.42272503
0.43293291
0.45524842
0.42766054
0.4421076
0.42643885
0.42891653
0.42749481
0.42325067
0.43509614
0.45568515
0.42741504
0.44265195
0.42667276
0.42889983
0.42755638
0.42354659
0.43961264
0.45893016
0.42744128
0.44337286
0.42686448
0.42882112
0.42760564
0.42414079
0.44312526
0.46332975
0.42774241
0.44373803
0.42701742
0.4286582
0.42764133
0.42466447
0.44906913
0.47091808
0.42807637
0.44753708
0.42690827
0.42840133
0.42765329
0.42556361
0.47390702
0.48709674
0.42602943
0.45343956
0.42690598
0.42804671
0.42760298
0.41930966
0.42033281
0.43502941
0.42189762
0.42705113
0.42128196
0.42279495
0.42189232
0.41937956
0.42116324
0.43502327
0.4218206
0.42707351
0.42146622
0.42285361
0.42193894
0.41949891
0.42187037
0.43494951
0.42167804
0.42700896
0.42163175
0.42291423
0.42198147
0.41960448
0.42243468
0.43482615
0.42147987
0.42683067
0.42177063
0.42294862
0.42201191
0.4196792
0.42285222
0.43459698
0.42125414
0.42649916
0.42189045
0.42295162
0.42203352
0.41970845
0.42297618
0.43351342
0.42103623
0.42601194
0.42201406
0.42292035
0.42205062
0.41969501
0.42202694
0.43220098
0.42152516
0.42592171
0.4220963
0.42284222
0.42206411
0.42077412
0.42505143
0.43503301
0.42145316
0.42496567
0.42210319
0.42268464
0.42205596
0.41657394
0.417674
0.42421999
0.41845106
0.42046673
0.41691951
0.41761301
0.4171017
0.41662422
0.41812693
0.42429115
0.41844485
0.42056574
0.41707719
0.41767573
0.41712579
0.41671617
0.4185889
0.42434107
0.41844397
0.42066666
0.41722915
0.41774284
0.41715013
0.41682053
0.41903225
0.42433152
0.41844998
0.42073001
0.41736103
0.4177926
0.41716562
0.41693457
0.41945
0.42424122
0.41846083
0.42075338
0.41747552
0.41782246
0.41717309
0.41705974
0.41983464
0.42407338
0.4184701
0.42074984
0.41757485
0.41783182
0.41717575
0.41719458
0.42020896
0.42388412
0.41847185
0.42074355
0.41764955
0.41781446
0.41717845
0.41732997
0.42058569
0.42367369
0.41860705
0.42071509
0.4176756
0.41775616
0.4171837
0.41281069
0.41303753
0.41615471
0.4134331
0.4139492
0.4123942
0.41286995
0.41268341
0.41281164
0.41326064
0.41622677
0.41347161
0.41405907
0.41249358
0.41290491
0.41269267
0.41283672
0.41348764
0.41629287
0.41351533
0.41416623
0.41259018
0.41294231
0.41269969
0.41287091
0.41370502
0.41633541
0.41355847
0.41424273
0.41267104
0.41296929
0.41270103
0.41291245
0.41391102
0.41635548
0.41360182
0.41428672
0.41273738
0.41298431
0.41269577
0.41296178
0.41410065
0.41635565
0.41364386
0.41429729
0.4127903
0.4129872
0.41268521
0.4130212
0.41426794
0.41633044
0.41368979
0.41426884
0.41282962
0.41297816
0.41267473
0.41310731
0.41441127
0.41624826
0.41376479
0.4142011
0.41284956
0.4129563
0.41267632
0.40876485
0.40861439
0.40993345
0.40852335
0.40858607
0.40816198
0.40853724
0.40854588
0.40875929
0.40871292
0.40998954
0.40857396
0.40866891
0.40821351
0.40854908
0.40854711
0.40876055
0.40881524
0.4100396
0.40862041
0.40874459
0.408264
0.40856183
0.40854411
0.4087661
0.40890845
0.4100687
0.40865075
0.40879157
0.40830313
0.40856621
0.40853736
0.40877297
0.40899067
0.4100779
0.40866599
0.4088109
0.40833149
0.40856345
0.40852699
0.40878055
0.40906177
0.41006814
0.40866595
0.40880456
0.40835025
0.40855415
0.40851153
0.40879175
0.40913081
0.41003584
0.4086548
0.40877293
0.40836314
0.40854129
0.40849475
0.40882016
0.40919794
0.41001157
0.40865806
0.4087225
0.40838193
0.40853237
0.4084888
0.40468344
0.40453065
0.40488584
0.40420928
0.40420913
0.4042178
0.40452844
0.40462871
0.40468441
0.40456552
0.4049204
0.40425124
0.40426
0.40423934
0.40452455
0.40462752
0.40468698
0.40460069
0.40495219
0.40428947
0.4043063
0.40425998
0.40452041
0.4046228
0.40468761
0.40463025
0.40496893
0.404314
0.40433492
0.40427396
0.40451166
0.40461376
0.40468537
0.40465411
0.40497168
0.40432706
0.40434783
0.40428118
0.40449863
0.40460007
0.40467986
0.40467243
0.40496236
0.40433054
0.40434773
0.40428248
0.40448194
0.40458177
0.4046723
0.40468837
0.4049436
0.40432783
0.40433721
0.40428127
0.40446438
0.40456159
0.404675
0.4047142
0.40492741
0.40433542
0.40432619
0.40428779
0.40445365
0.40454922
0.40076382
0.40061737
0.40064619
0.40031687
0.40035516
0.40050471
0.40076107
0.40088035
0.40076631
0.40062364
0.40066387
0.40034397
0.40038149
0.40050927
0.40074889
0.40087795
0.40076829
0.40062824
0.40067911
0.40036785
0.40040482
0.40051289
0.40073556
0.40087272
0.40076781
0.40062839
0.40068432
0.40038208
0.40041816
0.40051201
0.40071991
0.4008643
0.4007643
0.40062444
0.40068083
0.4003887
0.40042315
0.40050707
0.40070188
0.40085226
0.40075777
0.40061733
0.40067081
0.40038991
0.40042198
0.40049916
0.40068183
0.40083645
0.40074818
0.40061012
0.40065647
0.40038799
0.40041662
0.40049066
0.40066186
0.40081821
0.40073258
0.40061008
0.40064259
0.40039027
0.4004117
0.40048622
0.40064677
0.40080231
0.39702861
0.3969198
0.39686426
0.39671142
0.39678448
0.39696264
0.39716499
0.39727274
0.39703218
0.3969159
0.39687083
0.39672582
0.39679498
0.39695749
0.39714978
0.39727024
0.3970341
0.39690989
0.39687524
0.39673763
0.39680337
0.3969514
0.39713308
0.39726545
0.39703396
0.39690041