/*--------------------------------*- C++ -*----------------------------------*\
  =========                 |
  \\      /  F ield         | OpenFOAM: The Open Source CFD Toolbox
   \\    /   O peration     | Website:  https://openfoam.org
    \\  /    A nd           | Version:  13
     \\/     M anipulation  |
\*---------------------------------------------------------------------------*/
FoamFile
{
    format      ascii;
    class       surfaceScalarField;
    location    "0.02";
    object      phi;
}
// * * * * * * * * * * * * * * * * * * * * * * * * * * * * * * * * * * * * * //

dimensions      [0 3 -1 0 0 0 0];

internalField   nonuniform List<scalar> 
150720
(
1.6038232e-11
2.6717189e-09
9.064004e-10
-1.2946714e-14
-1.6534382e-11
2.6352595e-09
9.9145766e-10
-1.8004628e-11
2.6397103e-09
9.5590454e-10
1.0146233e-13
2.6410381e-09
9.350004e-10
1.8195638e-11
2.6410318e-09
9.3501856e-10
1.6687769e-11
2.639698e-09
9.5595446e-10
-1.5949676e-11
2.6352454e-09
9.915366e-10
2.6716996e-09
9.0648535e-10
9.8903598e-15
-4.4102896e-11
4.154355e-09
2.0216626e-09
-9.2598555e-14
-1.0009954e-10
3.9934981e-09
2.1578613e-09
-6.8269455e-11
3.9849675e-09
2.0830159e-09
2.3930329e-13
3.9909307e-09
2.0417018e-09
6.8716236e-11
3.9909145e-09
2.0417437e-09
1.0046082e-10
3.9849264e-09
2.0831302e-09
4.4336464e-11
3.9934265e-09
2.1580465e-09
4.1543024e-09
2.0218774e-09
-4.0431783e-14
-7.9268184e-11
4.8529716e-09
2.7069163e-09
-2.0271441e-13
-1.4480521e-10
4.5559944e-09
2.8291028e-09
-9.4418079e-11
4.5275826e-09
2.7330598e-09
3.3760659e-13
4.5388975e-09
2.6833395e-09
9.5051122e-11
4.5388694e-09
2.6833935e-09
1.4532717e-10
4.5275061e-09
2.7332063e-09
7.9606343e-11
4.5558639e-09
2.8293454e-09
4.8528589e-09
2.707217e-09
-1.0515009e-13
-9.4751387e-11
5.0265126e-09
3.1135614e-09
-3.3032999e-13
-1.5969395e-10
4.6202881e-09
3.1926694e-09
-1.0308939e-10
4.5759182e-09
3.0870804e-09
4.0682895e-13
4.5916331e-09
3.0357888e-09
1.0385614e-10
4.5915944e-09
3.0358463e-09
1.6033879e-10
4.5758089e-09
3.0872351e-09
9.5183874e-11
4.6201092e-09
3.1929303e-09
5.026337e-09
3.1139065e-09
-1.8013662e-13
-9.9054911e-11
4.8647233e-09
3.3192906e-09
-4.670153e-13
-1.5827281e-10
4.3895565e-09
3.3479289e-09
-1.0235876e-10
4.3369271e-09
3.2410564e-09
4.537499e-13
4.3546915e-09
3.1921084e-09
1.0321857e-10
4.3546449e-09
3.192164e-09
1.5900976e-10
4.3367926e-09
3.2412044e-09
9.9570495e-11
4.3893467e-09
3.3481811e-09
4.864499e-09
3.3196457e-09
-2.5791654e-13
-9.5040479e-11
4.5045834e-09
3.3797256e-09
-6.073053e-13
-1.475387e-10
4.0034431e-09
3.3625496e-09
-9.6364379e-11
3.9496833e-09
3.2600075e-09
4.844782e-13
3.966365e-09
3.2154157e-09
9.7287327e-11
3.9663133e-09
3.2154668e-09
1.4834349e-10
3.9495329e-09
3.2601416e-09
9.5627851e-11
4.0032219e-09
3.3627784e-09
4.5043324e-09
3.3800668e-09
-3.343605e-13
-8.4642063e-11
4.0429634e-09
3.3369071e-09
-7.4828748e-13
-1.3184106e-10
3.5563419e-09
3.284197e-09
-8.7468708e-11
3.5056295e-09
3.1895782e-09
5.0417989e-13
3.5180913e-09
3.1501975e-09
8.8434001e-11
3.5180368e-09
3.1502434e-09
1.3269551e-10
3.5054717e-09
3.1896965e-09
8.5290368e-11
3.5561272e-09
3.2843966e-09
4.0427061e-09
3.3372205e-09
-4.0697816e-13
-6.7735079e-11
3.2343642e-09
-8.7175539e-13
3.5330615e-09
-1.1543519e-10
3.1555044e-09
3.104393e-09
-7.7849175e-11
3.0698683e-09
3.0540306e-09
5.1669226e-13
3.0356271e-09
3.0599537e-09
7.8845317e-11
3.035668e-09
3.0598956e-09
1.1633222e-10
3.0699709e-09
3.0538693e-09
6.842994e-11
3.1556738e-09
3.1042111e-09
3.2346429e-09
-4.6556063e-13
3.532814e-09
4.4871766e-11
4.4685794e-10
4.1469264e-10
-2.1956965e-14
3.7659028e-11
4.6595595e-10
5.3271444e-10
1.8928164e-11
4.4685997e-10
5.2777543e-10
2.2997297e-13
4.4186999e-10
5.1182859e-10
-1.8502765e-11
4.418666e-10
5.1188469e-10
-3.7326446e-11
4.4684494e-10
5.2793319e-10
-4.4692353e-11
4.6594926e-10
5.3295324e-10
4.4686959e-10
4.1491555e-10
7.8484359e-15
9.0377583e-11
1.1704568e-09
1.2078984e-09
-2.1228848e-13
7.2419757e-11
1.1879543e-09
1.4538208e-09
3.4180019e-11
1.1395892e-09
1.4285264e-09
6.0273189e-13
1.1286267e-09
1.3885224e-09
-3.3061283e-11
1.1286169e-09
1.3886574e-09
-7.1531816e-11
1.1395407e-09
1.428905e-09
-8.987464e-11
1.1879205e-09
1.4544181e-09
1.1704599e-09
1.2085114e-09
-9.8926735e-14
1.091766e-10
1.8815239e-09
1.8871815e-09
-5.0897854e-13
8.2412656e-11
1.8670969e-09
2.1767241e-09
3.6529543e-11
1.7897512e-09
2.128781e-09
8.9324716e-13
1.7744223e-09
2.0731802e-09
-3.4862263e-11
1.7744052e-09
2.0733607e-09
-8.1061194e-11
1.789659e-09
2.1292869e-09
-1.0836784e-10
1.8670246e-09
2.1775479e-09
1.8814827e-09
1.8880895e-09
-2.6309831e-13
1.1152864e-10
2.4610746e-09
2.42335e-09
-8.6798822e-13
7.8585083e-11
2.3940852e-09
2.6986247e-09
3.2325137e-11
2.2927787e-09
2.6303128e-09
1.108894e-12
2.2750612e-09
2.5663661e-09
-3.0243199e-11
2.2750388e-09
2.5665647e-09
-7.6863378e-11
2.2926451e-09
2.6308692e-09
-1.1044024e-10
2.3939763e-09
2.6995555e-09
2.4609698e-09
2.4244421e-09
-4.6285101e-13
1.0463177e-10
2.8626361e-09
2.814357e-09
-1.2596815e-12
6.882242e-11
2.7363931e-09
3.0414303e-09
2.5756208e-11
2.6195345e-09
2.9573668e-09
1.2614822e-12
2.6010274e-09
2.890637e-09
-2.3373457e-11
2.601003e-09
2.8908348e-09
-6.6814508e-11
2.6193702e-09
2.9579205e-09
-1.0329455e-10
2.7362612e-09
3.0423762e-09
2.8624689e-09
2.8155305e-09
-6.7849868e-13
9.3249552e-11
3.083185e-09
3.0675916e-09
-1.6644474e-12
5.7329157e-11
2.9027984e-09
3.2320647e-09
1.8950503e-11
2.7800955e-09
3.1378251e-09
1.3652481e-12
2.7617477e-09
3.0722806e-09
-1.6355719e-11
2.7617242e-09
3.0724665e-09
-5.5105199e-11
2.7799162e-09
3.138345e-09
-9.1694806e-11
2.9026637e-09
3.2329655e-09
3.0829723e-09
3.0687663e-09
-8.9774709e-13
8.0143296e-11
3.1450308e-09
3.1969882e-09
-2.0701088e-12
4.5904112e-11
2.9221265e-09
3.299108e-09
1.2788864e-11
2.8027617e-09
3.2000272e-09
1.4335835e-12
2.7850258e-09
3.1382747e-09
-1.0045956e-11
2.7850035e-09
3.1384437e-09
-4.351985e-11
2.8025875e-09
3.2004991e-09
-7.8402596e-11
2.9220128e-09
3.2999303e-09
3.1447928e-09
3.19811e-09
-1.1126639e-12
6.7148293e-11
3.2123964e-09
-2.4394018e-12
3.1022897e-09
3.546224e-11
3.2648992e-09
2.8444178e-09
7.6252395e-12
3.1656037e-09
2.7348633e-09
1.4773771e-12
3.1093538e-09
2.717447e-09
-4.759664e-12
3.1095043e-09
2.7174042e-09
-3.2955095e-11
3.1660238e-09
2.73473e-09
-6.5238619e-11
3.2656286e-09
2.8443416e-09
3.2134352e-09
-1.3027133e-12
3.1020645e-09
3.6599378e-11
9.1578352e-11
2.865277e-10
-1.2797569e-14
3.781924e-11
1.2175866e-10
4.097359e-10
2.0605555e-11
1.1638687e-10
4.2860223e-10
3.1059705e-13
1.1172566e-10
4.2039789e-10
-2.0032838e-11
1.1172165e-10
4.2050647e-10
-3.7381785e-11
1.1638611e-10
4.2889602e-10
-3.6373601e-11
1.2177653e-10
4.1016852e-10
9.1607601e-11
2.8691942e-10
1.4915035e-14
8.4498161e-11
3.6429862e-10
8.5096947e-10
-2.894622e-13
8.925462e-11
4.3279003e-10
1.1380329e-09
4.840989e-11
4.1216183e-10
1.1735961e-09
8.2945004e-13
3.9678959e-10
1.1510389e-09
-4.6876455e-11
3.9678319e-10
1.1513017e-09
-8.8059236e-11
4.1216348e-10
1.1743104e-09
-8.3842463e-11
4.3285259e-10
1.1391252e-09
3.6437909e-10
8.520473e-10
-1.4989874e-13
1.1601453e-10
7.5472493e-10
1.3814986e-09
-7.5791984e-13
1.2123253e-10
8.4698775e-10
1.7573083e-09
6.5035761e-11
8.0465801e-10
1.7924816e-09
1.2457548e-12
7.7597789e-10
1.7577819e-09
-6.2720053e-11
7.7597238e-10
1.7581374e-09
-1.1938493e-10
8.0466256e-10
1.7934527e-09
-1.1493519e-10
8.4711111e-10
1.7588396e-09
7.5485166e-10
1.3831113e-09
-4.296267e-13
1.3325739e-10
1.1875935e-09
1.8585762e-09
-1.3521699e-12
1.3613117e-10
1.2798937e-09
2.262845e-09
7.2177441e-11
1.2125373e-09
2.2863873e-09
1.5626091e-12
1.1708032e-09
2.2421557e-09
-6.9255412e-11
1.1708024e-09
2.2425527e-09
-1.3374863e-10
1.2125468e-09
2.2874782e-09
-1.3177914e-10
1.2800835e-09
2.2646136e-09
1.1877554e-09
1.8605478e-09
-7.8863026e-13
1.3960755e-10
1.6021278e-09
2.2622323e-09
-2.0171371e-12
1.3849553e-10
1.6716446e-09
2.6507914e-09
7.256271e-11
1.5788543e-09
2.6569826e-09
1.7918219e-12
1.5260419e-09
2.6061692e-09
-6.9191722e-11
1.5260496e-09
2.6065711e-09
-1.3568989e-10
1.5788728e-09
2.6580926e-09
-1.3776726e-10
1.6719018e-09
2.6526353e-09
1.6023162e-09
2.2643928e-09
-1.1902749e-12
1.3729654e-10
1.9565123e-09
2.5786233e-09
-2.7128485e-12
1.31854e-10
1.9856062e-09
2.9235457e-09
6.8370259e-11
1.8692859e-09
2.9108773e-09
1.9506461e-12
1.8083281e-09
2.856414e-09
-6.4678713e-11
1.8083477e-09
2.8567978e-09
-1.2872234e-10
1.8693194e-09
2.911942e-09
-1.3513514e-10
1.9859305e-09
2.9253497e-09
1.9567236e-09
2.5808325e-09
-1.6086509e-12
1.2756695e-10
2.228734e-09
2.8006128e-09
-3.4132672e-12
1.1887704e-10
2.2040893e-09
3.0893148e-09
6.1268886e-11
2.0680794e-09
3.0588419e-09
2.0565895e-12
2.0024524e-09
3.0033627e-09
-5.7355256e-11
2.0024869e-09
3.0037164e-09
-1.1549903e-10
2.0681363e-09
3.0598259e-09
-1.2512736e-10
2.2044829e-09
3.0910062e-09
2.2289636e-09
2.8027691e-09
-2.0264063e-12
1.1284261e-10
2.9290859e-09
-4.0586765e-12
2.4032606e-09
1.0271104e-10
3.162309e-09
2.316811e-09
5.3043093e-11
3.1156453e-09
2.1677057e-09
2.1242068e-12
3.0613814e-09
2.1013437e-09
-4.897757e-11
3.0617003e-09
2.1013927e-09
-9.9149589e-11
3.1165332e-09
2.1677989e-09
-1.1014753e-10
3.1638458e-09
2.3172636e-09
2.9311241e-09
-2.407841e-12
2.403535e-09
1.7438839e-11
4.0280788e-11
2.2879563e-10
1.2431252e-14
2.2060314e-11
5.5755101e-11
3.4935932e-10
1.3344927e-11
5.3092589e-11
3.8422502e-10
3.7976762e-13
4.8139128e-11
3.8522391e-10
-1.2651516e-11
4.8143118e-11
3.8539462e-10
-2.1541821e-11
5.312193e-11
3.8466439e-10
-1.7178986e-11
5.5812784e-11
3.4999289e-10
4.0333606e-11
2.2936561e-10
4.1211611e-14
4.856348e-11
1.5151273e-10
6.9151601e-10
-3.419753e-13
6.0860629e-11
1.990113e-10
9.8247957e-10
3.6533508e-11
1.8961856e-10
1.0613973e-09
1.0115345e-12
1.735705e-10
1.0611295e-09
-3.4679699e-11
1.7359088e-10
1.0615452e-09
-5.9439212e-11
1.8972086e-10
1.062471e-09
-4.7797279e-11
1.992142e-10
9.8408187e-10
1.5168208e-10
6.9308444e-10
-1.8290454e-13
7.450915e-11
3.2644525e-10
1.1330477e-09
-9.907599e-13
9.1867411e-11
4.0815396e-10
1.5308074e-09
5.4814403e-11
3.8754153e-10
1.6316116e-09
1.5159559e-12
3.5719176e-10
1.6274591e-09
-5.2018563e-11
3.5723791e-10
1.6280248e-09
-8.9666812e-11
3.8774e-10
1.6330818e-09
-7.3235417e-11
4.0856149e-10
1.5330609e-09
3.2676005e-10
1.1353947e-09
-5.9675901e-13
9.5051161e-11
5.5108035e-10
1.5407427e-09
-1.8527584e-12
1.1440218e-10
6.5836713e-10
1.9932808e-09
6.7821687e-11
6.2181808e-10
2.0986912e-09
1.8970146e-12
5.7629925e-10
2.0889728e-09
-6.4299708e-11
5.7637787e-10
2.0896094e-09
-1.1156294e-10
6.2212341e-10
2.100358e-09
-9.3295561e-11
6.5900985e-10
1.9958979e-09
5.5155896e-10
1.5436144e-09
-1.1610931e-12
1.0975069e-10
8.0310553e-10
1.9032997e-09
-2.8433325e-12
1.2850781e-10
9.2085216e-10
2.3695492e-09
7.5736456e-11
8.6464337e-10
2.4669287e-09
2.1698403e-12
8.0508365e-10
2.4509514e-09
-7.168061e-11
8.0519847e-10
2.4516009e-09
-1.2516438e-10
8.6505658e-10
2.4686432e-09
-1.0755641e-10
9.2173738e-10
2.3722997e-09
8.0375828e-10
1.9064542e-09
-1.8171285e-12
1.1832519e-10
1.0571527e-09
2.2101464e-09
-3.8953495e-12
1.346482e-10
1.1678571e-09
2.6602177e-09
7.905855e-11
1.0899672e-09
2.741143e-09
2.3567234e-12
1.0191007e-09
2.7190987e-09
-7.4623863e-11
1.0192528e-09
2.719724e-09
-1.3091587e-10
1.090483e-09
2.7428075e-09
-1.1574102e-10
1.1689745e-09
2.6629377e-09
1.0579817e-09
2.2133859e-09
-2.5178532e-12
1.2057239e-10
1.289557e-09
2.4525975e-09
-4.9614608e-12
1.3379724e-10
1.3757798e-09
2.8681673e-09
7.8551639e-11
1.276586e-09
2.9274688e-09
2.4801828e-12
1.1983185e-09
2.9002164e-09
-7.3854805e-11
1.1985073e-09
2.9007969e-09
-1.2976868e-10
1.2771962e-09
2.9290266e-09
-1.1764919e-10
1.3771104e-09
2.8707508e-09
1.2905503e-09
2.4557797e-09
-3.2284692e-12
1.1697577e-10
2.6243183e-09
-5.9477571e-12
1.4832966e-09
1.2760464e-10
2.9990965e-09
1.5283634e-09
7.5239352e-11
3.0333379e-09
1.4112586e-09
2.5588182e-12
3.0022462e-09
1.3301342e-09
-7.0362035e-11
3.0027727e-09
1.3303557e-09
-1.2335069e-10
3.0347619e-09
1.4119562e-09
-1.1373956e-10
3.0014797e-09
1.5298653e-09
2.6273529e-09
-3.8862727e-12
1.4844683e-09
1.0885636e-11
2.0374768e-11
1.9748683e-10
4.8383837e-14
1.4043251e-11
3.2609495e-11
3.135922e-10
8.7356426e-12
3.1171233e-11
3.5836139e-10
4.7073691e-13
2.6414546e-11
3.6707426e-10
-7.8852477e-12
2.64279e-11
3.673227e-10
-1.3413941e-11
3.1230375e-11
3.589627e-10
-1.057256e-11
3.270085e-11
3.1445065e-10
2.0437877e-11
1.9826363e-10
9.1537963e-14
2.9920152e-11
8.3236954e-11
5.9912968e-10
-3.9601497e-13
3.9579475e-11
1.1882916e-10
8.8660057e-10
2.5013446e-11
1.129578e-10
9.9417671e-10
1.2417671e-12
9.7511259e-11
1.0138044e-09
-2.2756959e-11
9.7558692e-11
1.0144131e-09
-3.7861188e-11
1.1315679e-10
9.9564882e-10
-2.8992475e-11
1.191453e-10
8.8876869e-10
8.3462036e-11
6.0126896e-10
-2.0116006e-13
4.6753825e-11
1.8372302e-10
9.8706842e-10
-1.2606581e-12
6.1824478e-11
2.451017e-10
1.3894642e-09
3.9339112e-11
2.3165847e-10
1.5353963e-09
1.8433934e-12
2.0251821e-10
1.5599479e-09
-3.5964334e-11
2.0261265e-10
1.5607786e-09
-5.9180057e-11
2.3204278e-10
1.5374115e-09
-4.5211517e-11
2.457377e-10
1.3925e-09
1.8415663e-10
9.9025511e-10
-7.6654894e-13
6.1493915e-11
3.1421759e-10
1.3512073e-09
-2.4531043e-12
8.0330139e-11
3.9784063e-10
1.8217056e-09
5.1238887e-11
3.7357864e-10
1.9858623e-09
2.2831987e-12
3.2992977e-10
2.010517e-09
-4.7028394e-11
3.3008046e-10
2.0114532e-09
-7.6944598e-11
3.7417181e-10
1.9881451e-09
-5.937453e-11
3.9885539e-10
1.8252101e-09
3.149016e-10
1.3550764e-09
-1.58155e-12
7.3941259e-11
4.6517052e-10
1.6822606e-09
-3.8551156e-12
9.4810156e-11
5.6318201e-10
2.183339e-09
6.0488452e-11
5.2513136e-10
2.3496976e-09
2.5840634e-12
4.6789752e-10
2.370888e-09
-5.5688322e-11
4.6810971e-10
2.3718441e-09
-9.085754e-11
5.2593887e-10
2.3520454e-09
-7.1305279e-11
5.6460228e-10
2.1870006e-09
4.6614235e-10
1.6864713e-09
-2.5631644e-12
8.3641976e-11
6.2508079e-10
1.9719614e-09
-5.3672639e-12
1.0497155e-10
7.2679889e-10
2.4752712e-09
6.6977989e-11
6.7277295e-10
2.631495e-09
2.7781425e-12
6.0432211e-10
2.646874e-09
-6.1779913e-11
6.0459699e-10
2.6477948e-09
-1.0059629e-10
6.7378584e-10
2.6337769e-09
-8.0555389e-11
7.2862227e-10
2.4788768e-09
6.2636753e-10
1.9762445e-09
-3.6392454e-12
9.0037017e-11
7.8125699e-10
2.2132989e-09
-6.914615e-12
1.1083047e-10
8.7440991e-10
2.6997628e-09
7.0803036e-11
8.0380757e-10
2.8364616e-09
2.8970373e-12
7.2764657e-10
2.8447979e-09
-6.5344465e-11
7.2798219e-10
2.8456532e-09
-1.0614369e-10
8.0500727e-10
2.8386044e-09
-8.6566452e-11
8.7661359e-10
2.7031823e-09
7.8286145e-10
2.2174709e-09
-4.7515148e-12
9.2834504e-11
2.4008644e-09
-8.3566589e-12
9.2023307e-10
1.1272925e-10
2.8609192e-09
9.9269244e-10
7.2236365e-11
2.9704425e-09
9.0719589e-10
2.9664289e-12
2.9715484e-09
8.2761427e-10
-6.6607518e-11
2.9723248e-09
8.2800402e-10
-1.0780999e-10
2.972412e-09
9.085596e-10
-8.9012953e-11
2.8640792e-09
9.9521704e-10
2.4048162e-09
-5.799115e-12
9.2218426e-10
6.4988678e-12
1.1721896e-11
1.7915564e-10
1.1041103e-13
8.4744254e-12
2.0305792e-11
2.9131084e-10
5.4046725e-12
1.944782e-11
3.4198332e-10
6.0169982e-13
1.5444196e-11
3.5643303e-10
-4.33304e-12
1.54692e-11
3.5678824e-10
-7.6891566e-12
1.9540562e-11
3.4277825e-10
-6.1119471e-12
2.0438447e-11
2.9243499e-10
1.1815096e-11
1.8017795e-10
1.5862266e-13
1.8328374e-11
4.7618893e-11
5.4536292e-10
-4.5862558e-13
2.4820643e-11
7.368285e-11
8.2673124e-10
1.6311847e-11
7.0334459e-11
9.5179886e-10
1.5738509e-12
5.7365154e-11
9.8662145e-10
-1.3481897e-11
5.7440569e-11
9.874975e-10
-2.2678523e-11
7.0651179e-11
9.5373482e-10
-1.7169934e-11
7.4145378e-11
8.2955317e-10
4.7952583e-11
5.4816898e-10
-2.07453e-13
2.9216877e-11
1.0590723e-10
9.0115607e-10
-1.5928737e-12
3.9891161e-11
1.5219405e-10
1.3002787e-09
2.6644892e-11
1.4439401e-10
1.474583e-09
2.312917e-12
1.1993203e-10
1.521713e-09
-2.24477e-11
1.2006997e-10
1.5229098e-09
-3.6612105e-11
1.4501132e-10
1.4772157e-09
-2.7288425e-11
1.5312868e-10
1.304193e-09
1.065599e-10
9.0530442e-10
-9.4506375e-13
3.9343401e-11
1.8311473e-10
1.2378599e-09
-3.2034697e-12
5.3427911e-11
2.4795644e-10
1.7118587e-09
3.6012264e-11
2.3347199e-10
1.9142e-09
2.8302671e-12
1.9679096e-10
1.96684e-09
-3.0834024e-11
1.9700122e-10
1.9681863e-09
-4.9264851e-11
2.3442834e-10
1.9171589e-09
-3.6700474e-11
2.4945171e-10
1.7163227e-09
1.8415559e-10
1.2428405e-09
-2.0602337e-12
4.8643158e-11
2.742254e-10
1.5476373e-09
-5.1304588e-12
6.5237872e-11
3.5287956e-10
2.0618211e-09
4.4182546e-11
3.2956574e-10
2.2746592e-09
3.1599507e-12
2.8137459e-10
2.327327e-09
-3.8354909e-11
2.816642e-10
2.328696e-09
-6.0427848e-11
3.3086974e-10
2.2776769e-09
-4.5373926e-11
3.5497765e-10
2.0664207e-09
2.7571496e-10
1.5529805e-09
-3.4424604e-12
5.687302e-11
3.7302697e-10
1.8235218e-09
-7.2350766e-12
7.504887e-11
4.5877391e-10
2.351201e-09
5.0957865e-11
4.2491439e-10
2.5602373e-09
3.3493031e-12
3.6709504e-10
2.6087621e-09
-4.4732135e-11
3.6746748e-10
2.6100729e-09
-6.9784928e-11
4.2655141e-10
2.563148e-09
-5.3072744e-11
4.6147583e-10
2.3556664e-09
3.7500994e-10
1.8288681e-09
-4.9912741e-12
6.3640403e-11
4.7253019e-10
2.059564e-09
-9.408756e-12
8.2685265e-11
5.5745474e-10
2.5820371e-09
5.6222672e-11
5.1228248e-10
2.7755561e-09
3.4443212e-12
4.4763106e-10
2.8170403e-09
-4.9770589e-11
4.4808601e-10
2.8182495e-09
-7.7110539e-11
5.1422187e-10
2.7782739e-09
-5.9402225e-11
5.6073107e-10
2.5862187e-09
4.7501813e-10
2.0646816e-09
-6.6211614e-12
6.8550434e-11
2.2509355e-09
-1.145277e-11
5.6536139e-10
8.8010414e-11
2.757667e-09
6.4124696e-10
5.9926107e-11
2.9255142e-09
5.8529504e-10
3.482646e-12
2.9583386e-09
5.1728435e-10
-5.3352603e-11
2.9594286e-09
5.1781752e-10
-8.22195e-11
2.9280065e-09
5.8749424e-10
-6.392436e-11
2.7614957e-09
6.4501944e-10
2.2557039e-09
-8.1848044e-12
5.6839086e-10
4.2174707e-12
6.2738808e-12
1.6846506e-10
1.9922287e-13
5.340727e-12
1.2502222e-11
2.7768536e-10
3.462997e-12
1.2184832e-11
3.3167621e-10
8.0280599e-13
9.1562691e-12
3.4993695e-10
-2.0539353e-12
9.1907236e-12
3.5045425e-10
-4.3253359e-12
1.2313648e-11
3.3273599e-10
-3.7267738e-12
1.2687723e-11
2.791487e-10
6.425006e-12
1.6978373e-10
2.4243654e-13
1.1982991e-11
2.6570291e-11
5.1361016e-10
-5.2665444e-13
1.5990801e-11
4.540593e-11
7.8981971e-10
1.0825941e-11
4.4037963e-11
9.2511058e-10
2.0920314e-12
3.4191919e-11
9.703197e-10
-7.1055473e-12
3.428193e-11
9.7160387e-10
-1.3211481e-11
4.4472927e-11
9.2768147e-10
-1.0494364e-11
4.6040938e-11
7.9348283e-10
2.7071781e-11
5.1724249e-10
-2.1465724e-13
1.9376994e-11
6.0188562e-11
8.5016036e-10
-1.9995646e-12
2.620604e-11
9.3878324e-11
1.2449773e-09
1.8153077e-11
9.0372696e-11
1.4363012e-09
3.0517874e-12
7.1755692e-11
1.4992505e-09
-1.2668472e-11
7.1906942e-11
1.5010051e-09
-2.1964111e-11
9.1221467e-11
1.4397628e-09
-1.6891571e-11
9.515699e-11
1.2500044e-09
6.1151425e-11
8.5549408e-10
-1.1608813e-12
2.6572561e-11
1.0538498e-10
1.1702355e-09
-4.1446109e-12
3.5857605e-11
1.5321168e-10
1.6432403e-09
2.5169313e-11
1.4619697e-10
1.869064e-09
3.6961642e-12
1.1823034e-10
1.9418385e-09
-1.8467789e-11
1.1845255e-10
1.9438046e-09
-3.0506841e-11
1.4752067e-10
1.8728988e-09
-2.3169098e-11
1.5526274e-10
1.6488792e-09
1.0691398e-10
1.1765536e-09
-2.6447666e-12
3.356751e-11
1.5950336e-10
1.4666992e-09
-6.7477956e-12
4.4863297e-11
2.1866952e-10
1.9850675e-09
3.1716939e-11
2.0673892e-10
2.2272636e-09
4.0747961e-12
1.6993931e-10
2.3032602e-09
-2.4266053e-11
1.7024505e-10
2.3052443e-09
-3.8736253e-11
2.0856075e-10
2.2311071e-09
-2.937218e-11
2.2156208e-10
1.9907573e-09
1.6169299e-10
1.4733516e-09
-4.5223592e-12
4.0241597e-11
2.1916545e-10
1.7332382e-09
-9.620056e-12
5.3060389e-11
2.8553734e-10
2.2715144e-09
3.764178e-11
2.6747386e-10
2.514921e-09
4.2574531e-12
2.2324375e-10
2.588842e-09
-2.9790824e-11
2.236452e-10
2.5907211e-09
-4.6426062e-11
2.6978534e-10
2.5185587e-09
-3.5390923e-11
2.8928505e-10
2.2769083e-09
2.2208705e-10
1.7397431e-09
-6.6599906e-12
4.6343994e-11
2.8054472e-10
1.9644508e-09
-1.2610104e-11
6.0292173e-11
3.4915599e-10
2.5044703e-09
4.280604e-11
3.2426219e-10
2.7362539e-09
4.3120439e-12
2.7468267e-10
2.8040953e-09
-3.4786759e-11
2.751886e-10
2.8058049e-09
-5.3346157e-11
3.2703052e-10
2.7395881e-09
-4.0969634e-11
3.5372911e-10
2.5093981e-09
2.8422227e-10
1.970517e-09
-8.9402445e-12
5.1572861e-11
2.155891e-09
-1.5443993e-11
3.3946035e-10
6.6324894e-11
2.6868859e-09
4.0518511e-10
4.7078057e-11
2.8955958e-09
3.734274e-10
4.2949159e-12
2.9546892e-09
3.2111519e-10
-3.9024931e-11
2.9562076e-09
3.2172941e-10
-5.9191136e-11
2.8986035e-09
3.7659975e-10
-4.5752322e-11
2.6912916e-09
4.104944e-10
2.1613857e-09
-1.1158962e-11
3.4394716e-10
2.8450781e-12
2.7131861e-12
1.6256987e-10
3.3691811e-13
3.4984496e-12
7.0865279e-12
2.6994545e-10
2.3625632e-12
7.1942948e-12
3.2561779e-10
1.1120615e-12
5.1288947e-12
3.4605855e-10
-4.7943413e-13
5.1732764e-12
3.4687246e-10
-2.1902912e-12
7.3226411e-12
3.271242e-10
-2.2435942e-12
7.31748e-12
2.7188452e-10
2.9368779e-12
1.6425833e-10
3.4492302e-13
8.2940496e-12
1.2625018e-11
4.9597034e-10
-5.6606909e-13
1.0720646e-11
2.5813143e-11
7.6866649e-10
7.5578728e-12
2.6099929e-11
9.0936771e-10
2.9018366e-12
1.9387238e-11
9.6071739e-10
-2.5286951e-12
1.9429804e-11
9.6277786e-10
-7.1003576e-12
2.6597847e-11
9.1297792e-10
-6.4268002e-12
2.6652242e-11
7.734745e-10
1.3381422e-11
5.0060894e-10
-2.3780559e-13
1.375805e-11
2.9779849e-11
8.2168784e-10
-2.4403737e-12
1.7900045e-11
5.3573412e-11
1.213075e-09
1.2885242e-11
5.3704178e-11
1.4137118e-09
4.2195864e-12
4.0988297e-11
1.4863151e-09
-5.4754409e-12
4.0987891e-11
1.489142e-09
-1.2360541e-11
5.474115e-11
1.4185046e-09
-1.0609812e-11
5.5328174e-11
1.2195777e-09
3.1293927e-11
8.2842637e-10
-1.4546115e-12
1.9357016e-11
5.3658935e-11
1.1322549e-09
-5.2554846e-12
2.4959334e-11
8.7851484e-11
1.6033599e-09
1.8154891e-11
8.7120137e-11
1.8424524e-09
5.0801176e-12
6.7966165e-11
1.9279354e-09
-9.1459651e-12
6.793053e-11
1.931088e-09
-1.7978287e-11
8.880845e-11
1.8476638e-09
-1.5019127e-11
9.0734463e-11
1.6105137e-09
5.6127848e-11
1.1401085e-09
-3.4079755e-12
2.507167e-11
8.3120232e-11
1.4208947e-09
-8.7285113e-12
3.1866504e-11
1.2608462e-10
1.9400395e-09
2.3274276e-11
1.2360799e-10
2.199368e-09
5.5541107e-12
9.8331709e-11
2.2906148e-09
-1.333285e-11
9.8302196e-11
2.2937596e-09
-2.3897124e-11
1.2601275e-10
2.204467e-09
-1.9703874e-11
1.3021662e-10
1.9470819e-09
8.6703835e-11
1.428983e-09
-5.9112658e-12
3.0815898e-11
1.1651478e-10
1.6816337e-09
-1.2605945e-11
3.8531781e-11
1.6569167e-10
2.2241915e-09
2.8151545e-11
1.6057852e-10
2.4883307e-09
5.7435738e-12
1.3011553e-10
2.5794661e-09
-1.7772848e-11
1.30149e-10
2.5823907e-09
-2.9940679e-11
1.6371997e-10
2.4930193e-09
-2.4594783e-11
1.7110814e-10
2.2306709e-09
1.2131662e-10
1.6893253e-09
-8.7897814e-12
3.6406866e-11
1.5186142e-10
1.9093775e-09
-1.6680219e-11
4.4845073e-11
2.0407004e-10
2.4576537e-09
3.2685435e-11
1.9565798e-10
2.713334e-09
5.7485371e-12
1.6142723e-10
2.7997205e-09
-2.2193386e-11
1.6157842e-10
2.8023174e-09
-3.589607e-11
1.9951719e-10
2.7174935e-09
-2.9501982e-11
2.1073734e-10
2.4633748e-09
1.5790067e-10
1.9163179e-09
-1.1886965e-11
4.1637663e-11
2.0999398e-09
-2.0576032e-11
1.8675098e-10
5.0586324e-11
2.6432268e-09
2.3878044e-10
3.6758157e-11
2.8784194e-09
2.2666262e-10
5.6546281e-12
2.9567221e-09
1.9049787e-10
-2.6337861e-11
2.9589591e-09
1.9081942e-10
-4.1443913e-11
2.8820487e-09
2.3117801e-10
-3.4157298e-11
2.6481632e-09
2.4657908e-10
2.1060071e-09
-1.4924983e-11
1.9404697e-10
1.9721288e-12
1.5001873e-13
1.598554e-10
5.9230364e-13
2.3220299e-12
3.1012428e-12
2.664943e-10
1.7024356e-12
3.4707563e-12
3.2276662e-10
1.5881139e-12
2.253913e-12
3.4391895e-10
1.0187487e-12
2.1050921e-12
3.4533672e-10
-6.1891519e-13
3.2909569e-12
3.254709e-10
-1.2499629e-12
3.1200702e-12
2.6939549e-10
4.1943203e-13
1.6215401e-10
4.3490805e-13
6.0158343e-12
2.675672e-12
4.8785772e-10
-4.288858e-13
7.3493684e-12
1.1247243e-11
7.5918695e-10
5.5395848e-12
1.2691112e-11
9.0195713e-10
4.1789745e-12
8.7292924e-12
9.5560261e-10
1.6094576e-12
8.3056532e-12
9.5914681e-10
-2.6000799e-12
1.2215898e-11
9.0826251e-10
-3.7868695e-12
1.129638e-11
7.6648497e-10
3.2586269e-12
4.943364e-10
-3.5352644e-13
1.0396022e-11
7.9174023e-12
8.0869338e-10
-2.6432955e-12
1.2585001e-11
2.3383497e-11
1.1987498e-09
9.5640723e-12
2.6239488e-11
1.4031843e-09
6.0819544e-12
1.8711669e-11
1.4798148e-09
9.0021038e-13
1.8006642e-11
1.4846227e-09
-5.2964368e-12
2.565815e-11
1.411259e-09
-6.6105173e-12
2.4127534e-11
1.2080606e-09
9.0618506e-12
8.1800245e-10
-1.9898384e-12
1.5196067e-11
1.6139502e-11
1.1150287e-09
-6.1920705e-12
1.7972642e-11
3.8587928e-11
1.5853789e-09
1.3639489e-11
4.2762074e-11
1.830263e-09
7.3037735e-12
3.1389813e-11
1.921593e-09
-9.6414938e-13
3.0484973e-11
1.9268776e-09
-8.7790216e-12
4.2526105e-11
1.8386107e-09
-9.9291247e-12
4.0581134e-11
1.5952102e-09
1.8229604e-11
1.1256037e-09
-4.5920959e-12
2.03613e-11
2.7248755e-11
1.400125e-09
-1.0700823e-11
2.3499598e-11
5.5885569e-11
1.9196036e-09
1.7715846e-11
6.0976096e-11
2.1869377e-09
7.9474418e-12
4.5932139e-11
2.2858409e-09
-3.7683405e-12
4.4952515e-11
2.2910078e-09
-1.2995914e-11
6.1583337e-11
2.1946373e-09
-1.3778116e-11
5.9553022e-11
1.9288922e-09
3.0707813e-11
1.4106478e-09
-7.9210674e-12
2.5802956e-11
4.0819172e-11
1.6580944e-09
-1.5834072e-11
2.9112314e-11
7.4226466e-11
2.2025412e-09
2.1749861e-11
7.9641052e-11
2.4770282e-09
8.1647855e-12
6.1483086e-11
2.5775003e-09
-7.2731605e-12
6.0596701e-11
2.5821844e-09
-1.7777078e-11
8.1458346e-11
2.4836482e-09
-1.8091727e-11
7.9849324e-11
2.2106892e-09
4.6010732e-11
1.6676813e-09
-1.1750726e-11
3.1358001e-11
5.6163782e-11
1.883986e-09
-2.1311073e-11
3.4725506e-11
9.2438744e-11
2.4360739e-09
2.5678432e-11
9.7573443e-11
2.7044487e-09
8.1067187e-12
7.7167239e-11
2.8016081e-09
-1.1143268e-11
7.6523071e-11
2.805641e-09
-2.2901541e-11
1.0080442e-10
2.7099057e-09
-2.2700721e-11
1.0015361e-10
2.4428697e-09
6.3310696e-11
1.8921937e-09
-1.5876448e-11
3.6877395e-11
2.0737928e-09
-2.6627962e-11
7.2061382e-11
4.0126732e-11
2.6230172e-09
1.0939901e-10
2.9413922e-11
2.8731393e-09
1.135663e-10
7.9002863e-12
2.9633094e-09
9.2093545e-11
-1.5079493e-11
2.9666842e-09
9.1777741e-11
-2.8031015e-11
2.8775639e-09
1.182408e-10
-2.7387729e-11
2.6285019e-09
1.1917162e-10
2.0805004e-09
-1.9928717e-11
8.1358333e-11
1.1246278e-12
-2.4342258e-12
1.5980717e-10
1.3578205e-12
1.2019985e-12
-5.2103032e-13
2.6693795e-10
1.0249853e-12
6.7083018e-14
3.2287655e-10
2.3644052e-12
-4.0336983e-13
3.4298289e-10
2.7765547e-12
-1.7252624e-12
3.4664983e-10
7.2724841e-13
-2.5114918e-12
3.3003169e-10
-7.0188132e-13
-3.1156334e-12
2.7394024e-10
-2.1711981e-12
1.6317895e-10
4.4437362e-13
3.9110464e-12
-6.9621959e-12
4.8798945e-10
4.8518315e-13
4.2250356e-12
-2.0268515e-12
7.6037877e-10
3.6061383e-12
3.7247182e-13
9.0227064e-10
6.2532522e-12
-1.0429784e-12
9.535951e-10
6.3532563e-12
-4.9918869e-12
9.6231343e-10
1.2091738e-12
-5.813605e-12
9.167087e-10
-2.1144e-12
-4.038547e-12
7.7073145e-10
-6.1976197e-12
4.9693251e-10
-6.8409796e-13
7.4608666e-12
-1.2917801e-11
8.0934829e-10
-2.1601829e-12
7.8041841e-12
-4.174009e-12
1.2005536e-09
6.5370851e-12
9.7845831e-13
1.4038454e-09
9.1012665e-12
-1.6085227e-12
1.4778162e-09
8.0257276e-12
-8.1938049e-12
1.4889002e-09
6.7968005e-13
-7.5687628e-12
1.4203602e-09
-3.9622895e-12
-4.6650859e-12
1.2133291e-09
-1.0904013e-11
8.2170718e-10
-2.9606283e-12
1.1817382e-11
-1.9303303e-11
1.1161548e-09
-6.5579677e-12
1.1916881e-11
-6.4493799e-12
1.5875547e-09
9.7006129e-12
1.9862381e-12
1.8314715e-09
1.0899471e-11
-1.8349589e-12
1.9206205e-09
7.9085404e-12
-1.017079e-11
1.9318455e-09
-1.0297981e-12
-6.9771367e-12
1.8469574e-09
-6.576773e-12
-5.1231028e-12
1.6012152e-09
-1.5242163e-11
1.129827e-09
-6.4618514e-12
1.6897817e-11
-2.5145538e-11
1.4014769e-09
-1.2407569e-11
1.6545935e-11
-8.3917795e-12
1.9218978e-09
1.3054905e-11
3.4473223e-12
2.1889676e-09
1.1803861e-11
-1.5195201e-12
2.2867765e-09
6.2683743e-12
-1.0459038e-11
2.2968315e-09
-3.8250946e-12
-4.1755561e-12
2.2019292e-09
-9.9945235e-12
-4.6495636e-12
1.9345881e-09
-1.8410821e-11
1.4147191e-09
-1.0897255e-11
2.2590845e-11
-2.9755544e-11
1.6593548e-09
-1.9241284e-11
2.1636006e-11
-9.6996358e-12
2.2048039e-09
1.6571053e-11
5.3034899e-12
2.480237e-09
1.205137e-11
-5.8223048e-13
2.5810826e-09
3.4775573e-12
-9.0960251e-12
2.5893952e-09
-7.623203e-12
3.0021254e-13
2.4902732e-09
-1.4122683e-11
-2.9382096e-12
2.2154773e-09
-1.9870088e-11
1.6709881e-09
-1.5970223e-11
2.8721847e-11
-3.2737512e-11
1.8849136e-09
-2.666752e-11
2.7084614e-11
-1.0324613e-11
2.4383361e-09
2.0196256e-11
7.3680779e-12
2.7092725e-09
1.1875676e-11
9.1228791e-13
2.8084341e-09
-1.0464991e-13
-6.41344e-12
2.8149388e-09
-1.2156812e-11
5.6631608e-12
2.7165949e-09
-1.8786315e-11
-9.7338213e-14
2.4466583e-09
-1.9430928e-11
1.8943732e-09
-2.1404975e-11
3.5157822e-11
2.0743467e-09
-3.3973699e-11
-3.4475555e-11
3.2629783e-11
2.6254964e-09
-1.0275749e-11
2.3844063e-11
2.8800621e-09
9.2310253e-12
1.1473264e-11
2.9738466e-09
2.7459299e-12
-3.9849748e-12
2.9788298e-09
-3.100747e-12
-1.704077e-11
2.8852647e-09
1.1018117e-11
-2.3795097e-11
2.6315959e-09
3.56304e-12
2.0815706e-09
-2.6693063e-11
-1.7603178e-11
4.87456e-13
-1.1625267e-11
1.6387799e-10
7.0669825e-12
-2.6160846e-14
-4.8981473e-12
2.723497e-10
-1.5804243e-13
-3.9537504e-12
3.2696217e-10
3.6762633e-12
-4.3016218e-12
3.434502e-10
7.1500511e-12
-1.5805197e-11
3.5898123e-10
1.8394344e-12
-4.3566315e-11
3.7890862e-10
-5.8182528e-12
4.7564591e-12
2.7684146e-10
-8.5141441e-12
1.6714891e-10
-1.2740783e-12
3.1278207e-12
-2.2928033e-11
4.9860995e-10
-2.4455611e-12
6.3816812e-13
-1.7424491e-11
7.7539476e-10
4.4568422e-13
-1.4022586e-11
9.1253195e-10
9.6187887e-12
-1.4971119e-11
9.5509148e-10
1.5377918e-11
-4.0223538e-11
9.8097263e-10
2.5783597e-12
-1.0456535e-10
9.9050728e-10
-4.9336048e-12
-9.929308e-12
7.9292918e-10
-2.254293e-11
5.095647e-10
-3.5370198e-12
6.0952645e-12
-3.9310272e-11
8.2792376e-10
-8.2885121e-12
2.1355762e-12
-3.6048962e-11
1.2231377e-09
1.8065332e-12
-2.8328469e-11
1.4184803e-09
1.3746974e-11
-2.9536983e-11
1.4804416e-09
1.9904321e-11
-6.3532589e-11
1.5060519e-09
3.9734101e-12
-1.4190438e-10
1.4736301e-09
-5.4948807e-12
-3.7451083e-11
1.2503192e-09
-4.174808e-11
8.4254444e-10
-7.127006e-12
1.0182322e-11
-6.051643e-11
1.1414136e-09
-1.4234924e-11