/*--------------------------------*- C++ -*----------------------------------*\
  =========                 |
  \\      /  F ield         | OpenFOAM: The Open Source CFD Toolbox
   \\    /   O peration     | Website:  https://openfoam.org
    \\  /    A nd           | Version:  13
     \\/     M anipulation  |
\*---------------------------------------------------------------------------*/
FoamFile
{
    format      ascii;
    class       volVectorField;
    location    "0.02";
    object      U;
}
// * * * * * * * * * * * * * * * * * * * * * * * * * * * * * * * * * * * * * //

dimensions      [0 1 -1 0 0 0 0];

internalField   nonuniform List<vector> 
51200
(
(0.053405088 0.012880347 0.011775665)
(0.058479496 0.0069886139 0.011996163)
(0.057162303 0.0031388011 0.012082798)
(0.056449031 0.00083823742 0.012113908)
(0.05644927 -0.00082576349 0.012113883)
(0.057162917 -0.0031279944 0.012082758)
(0.058480479 -0.0069806103 0.011996112)
(0.053406478 -0.012877889 0.0117756)
(0.12294638 0.031884625 0.033777423)
(0.12991853 0.014332342 0.033068641)
(0.12694956 0.006500488 0.033067325)
(0.12555697 0.0017684263 0.033096661)
(0.12555747 -0.0017389678 0.033096559)
(0.12695084 -0.0064749093 0.033067089)
(0.12992053 -0.01431281 0.033068284)
(0.12294959 -0.031878015 0.033777094)
(0.16687888 0.041694426 0.046494189)
(0.17224028 0.018122691 0.044278712)
(0.16839433 0.0082878632 0.044090803)
(0.16676062 0.0022749741 0.044174029)
(0.16676122 -0.0022333416 0.044173809)
(0.16839583 -0.0082512962 0.044090222)
(0.17224257 -0.018093618 0.044277732)
(0.16688304 -0.041683061 0.046493376)
(0.19400138 0.045517858 0.052473423)
(0.19663859 0.019864093 0.048782136)
(0.19245313 0.009123215 0.048394331)
(0.19081475 0.0025244105 0.048539695)
(0.19081535 -0.0024741976 0.048539344)
(0.19245457 -0.0090785527 0.048393355)
(0.19664071 -0.019827297 0.048780515)
(0.19400577 -0.04550135 0.052471909)
(0.20997853 0.045985987 0.054322178)
(0.20991287 0.020419405 0.049464155)
(0.20573775 0.0093813116 0.048926211)
(0.20421082 0.0026173191 0.049116605)
(0.20421135 -0.0025612812 0.049116137)
(0.20573898 -0.0093308397 0.048924871)
(0.20991456 -0.020376546 0.049462017)
(0.20998267 -0.045964315 0.054319957)
(0.21856104 0.044559739 0.05352324)
(0.21629267 0.020283644 0.047911632)
(0.21234136 0.0092931683 0.047296195)
(0.21097357 0.0026156968 0.047501036)
(0.21097402 -0.0025558366 0.047500471)
(0.21234234 -0.0092386147 0.047294552)
(0.21629388 -0.020236153 0.047909148)
(0.21856466 -0.04453314 0.053520455)
(0.2222991 0.042048607 0.050982561)
(0.21845651 0.019749227 0.04508618)
(0.21485331 0.008998089 0.044448081)
(0.21365733 0.0025568946 0.044630075)
(0.21365772 -0.0024945818 0.044629431)
(0.21485408 -0.0089406942 0.04444621)
(0.21845732 -0.019698331 0.045083563)
(0.22230212 -0.042017447 0.050979415)
(0.22288917 0.039035397 0.047493032)
(0.21807592 0.018928431 0.041545826)
(0.21489208 0.008584858 0.04098247)
(0.2138653 0.002463152 0.041110911)
(0.21386565 -0.0023992104 0.041110212)
(0.21489271 -0.0085253364 0.040980467)
(0.21807644 -0.018874918 0.041543315)
(0.2228916 -0.039000081 0.047489786)
(0.036053261 0.0034130145 0.0012736619)
(0.041648318 0.0037934726 0.0013754146)
(0.039911931 0.0022245965 0.0013042265)
(0.03861168 0.0007232874 0.0012835225)
(0.038613478 -0.00069494833 0.0012835135)
(0.039916981 -0.0022004952 0.0013041941)
(0.041656191 -0.0037763423 0.0013753902)
(0.036061194 -0.0034093159 0.0012737403)
(0.095911846 0.011394264 0.0075749632)
(0.10659627 0.010632942 0.0078519221)
(0.1021205 0.0060006358 0.0075419976)
(0.099125775 0.001917743 0.0074614859)
(0.09913014 -0.001843403 0.0074614233)
(0.10213264 -0.0059369155 0.0075417129)
(0.10661589 -0.010586173 0.0078517693)
(0.095933355 -0.011381302 0.0075750557)
(0.14516796 0.019579169 0.015335743)
(0.15661864 0.016277123 0.015434224)
(0.15007974 0.0089810393 0.014806632)
(0.14608669 0.0028441222 0.014668436)
(0.14609263 -0.0027338473 0.014668302)
(0.15009611 -0.0088853655 0.014805948)
(0.15664587 -0.016204462 0.015433744)
(0.1452 -0.019554536 0.015335593)
(0.18429531 0.026642427 0.022906057)
(0.1937063 0.020534174 0.022520111)
(0.18573093 0.011162897 0.021576689)
(0.18125375 0.0035175674 0.021398339)
(0.18126042 -0.0033806125 0.021398131)
(0.18574919 -0.01104258 0.021575512)
(0.19373733 -0.0204398 0.022519193)
(0.18433432 -0.026604695 0.022905315)
(0.21391801 0.032002654 0.029303736)
(0.21979162 0.023459749 0.028250244)
(0.21094465 0.012626667 0.027044055)
(0.20634239 0.0039712084 0.026842941)
(0.20634921 -0.003815371 0.026842686)
(0.21096313 -0.01248807 0.02704241)
(0.21982346 -0.023347776 0.028248933)
(0.21396058 -0.031951324 0.029302225)
(0.23499238 0.035615711 0.034152177)
(0.23685138 0.025223361 0.032378673)
(0.22761515 0.013487905 0.030994901)
(0.22312191 0.004244212 0.03078354)
(0.22312852 -0.0040755383 0.030783269)
(0.22763291 -0.013336143 0.030992897)
(0.23688205 -0.025097523 0.032377129)
(0.23503577 -0.035550961 0.034149904)
(0.24868056 0.037697088 0.037438117)
(0.24676361 0.026009052 0.03498194)
(0.23752579 0.013863404 0.033520516)
(0.2332837 0.0043734591 0.033306938)
(0.23328994 -0.0041963551 0.033306646)
(0.23754241 -0.013702389 0.03351835)
(0.24679206 -0.025872635 0.034980407)
(0.24872289 -0.037619576 0.037435218)
(0.25612816 0.038511332 0.039309251)
(0.25115778 0.025960207 0.036217887)
(0.24220394 0.013855008 0.034808189)
(0.23829509 0.0043893181 0.034598099)
(0.23830093 -0.0042068035 0.034597704)
(0.24221934 -0.013687519 0.034806171)
(0.25118361 -0.025815771 0.036216625)
(0.2561683 -0.038422246 0.039306181)
(0.016372128 0.001475709 -7.1921055e-06)
(0.023476594 0.0028478744 8.3752729e-05)
(0.024174595 0.001934197 8.4690948e-05)
(0.02352118 0.0006598579 7.9826707e-05)
(0.023525734 -0.00062151051 7.9808924e-05)
(0.024187304 -0.0019020324 8.4689352e-05)
(0.023495666 -0.0028257771 8.3756891e-05)
(0.016389667 -0.0014717723 -7.0988844e-06)
(0.052548411 0.0050778343 0.0018929048)
(0.069300886 0.0080991967 0.002375845)
(0.070141915 0.0052957941 0.0022699421)
(0.068283398 0.0017966756 0.002181021)
(0.068294774 -0.0016942598 0.0021809604)
(0.070173715 -0.0052091281 0.0022699245)
(0.069350577 -0.0080374971 0.0023761859)
(0.052598367 -0.0050623559 0.0018933644)
(0.090053288 0.0096210086 0.0053311612)
(0.11214096 0.012894991 0.0061696875)
(0.112212 0.0081616387 0.0058734227)
(0.10931537 0.0027491492 0.0056576112)
(0.10933125 -0.0025952395 0.0056575409)
(0.11225648 -0.0080297704 0.0058734335)
(0.11221279 -0.012797874 0.0061705904)
(0.090130632 -0.0095902452 0.005332136)
(0.12668792 0.014729203 0.0099673842)
(0.15039433 0.017081037 0.010983446)
(0.14916785 0.010509125 0.010425495)
(0.14545848 0.0035163257 0.010058737)
(0.14547678 -0.0033232126 0.010058695)
(0.14921925 -0.010341534 0.010425553)
(0.15047976 -0.016953662 0.010985077)
(0.12678566 -0.014680953 0.0099688394)
(0.16046988 0.019849486 0.015143533)
(0.18293342 0.020507877 0.016079447)
(0.18022208 0.012323442 0.015215291)
(0.17595041 0.0041017509 0.014697442)
(0.17596954 -0.0038802652 0.014697473)
(0.1802759 -0.01212878 0.015215424)
(0.18302507 -0.020355534 0.016081895)
(0.16058054 -0.019782822 0.015145386)
(0.18988058 0.024550647 0.020323868)
(0.20923165 0.023082274 0.02092133)
(0.20509583 0.013611075 0.01972982)
(0.20050178 0.0045149564 0.019075646)
(0.20052068 -0.0042737997 0.019075796)
(0.20514905 -0.01339655 0.019730077)
(0.20932392 -0.02290985 0.020924651)
(0.1899975 -0.024465517 0.020326019)
(0.21394075 0.028562905 0.02514312)
(0.22931595 0.024758045 0.025158968)
(0.22395016 0.014401077 0.023642354)
(0.21924027 0.0047707438 0.022878516)
(0.21925833 -0.0045164672 0.022878829)
(0.224001 -0.014172355 0.023642814)
(0.22940507 -0.024569896 0.025163226)
(0.21405879 -0.028459904 0.025145472)
(0.23213918 0.031579413 0.029106292)
(0.24364189 0.025542063 0.028440507)
(0.23724431 0.01474686 0.026660462)
(0.2325875 0.0048884796 0.025840991)
(0.23260447 -0.0046257411 0.025841492)
(0.23729195 -0.014508103 0.026661281)
(0.24372556 -0.025341624 0.028445737)
(0.23225487 -0.031459966 0.029109178)
(0.01423213 0.00058720312 7.6926385e-05)
(0.020978695 0.0016014205 0.00010712292)
(0.022508816 0.0012512649 9.9399993e-05)
(0.022299046 0.00045746284 8.8950379e-05)
(0.022306614 -0.0004106146 8.8948516e-05)
(0.022528941 -0.0012128069 9.945381e-05)
(0.021007948 -0.0015755832 0.00010718788)
(0.014258336 -0.00058323677 7.7056335e-05)
(0.043951169 0.002258376 0.00076407781)
(0.060645609 0.0048957994 0.0010440161)
(0.06409132 0.003672881 0.00099777524)
(0.063406448 0.0013295809 0.00090672797)
(0.063425523 -0.0012047503 0.0009068167)
(0.064142325 -0.0035693824 0.00099831836)
(0.060722525 -0.0048234405 0.0010451169)
(0.044026164 -0.0022414472 0.00076498105)
(0.074258791 0.0045881215 0.0022108458)
(0.097682346 0.0082201858 0.0028528904)
(0.10200307 0.0059492993 0.0027183995)
(0.10078322 0.0021322934 0.0024945314)
(0.10081016 -0.0019450701 0.0024948355)
(0.10207562 -0.005792026 0.0027198182)
(0.097795067 -0.0081062949 0.0028558027)
(0.074375883 -0.0045534372 0.0022130812)
(0.10452474 0.0074946786 0.0044134097)
(0.13181855 0.011444249 0.0054187259)
(0.13613642 0.0080078924 0.0051374531)
(0.13435072 0.0028424136 0.004746069)
(0.13438224 -0.0026080425 0.004746697)
(0.13622198 -0.0078083691 0.0051400188)
(0.13195517 -0.011295204 0.0054241078)
(0.10467462 -0.0074395962 0.004417373)
(0.1339482 0.010804039 0.007249333)
(0.16265049 0.014409585 0.0085113915)
(0.16629056 0.009778847 0.008022059)
(0.16395444 0.0034411227 0.0074498809)
(0.16398795 -0.0031729801 0.0074509182)
(0.1663822 -0.0095475309 0.0080259301)
(0.16280045 -0.014231906 0.0085196665)
(0.13412073 -0.010727658 0.0072553318)
(0.16160281 0.014294569 0.010528873)
(0.18975998 0.016961049 0.011863182)
(0.19225977 0.011209712 0.011110853)
(0.18943362 0.0039166535 0.010363537)
(0.18946729 -0.0036253629 0.010365045)
(0.19235246 -0.010955185 0.011116105)
(0.18991491 -0.016760617 0.011874573)
(0.1617887 -0.014197102 0.010537094)
(0.1865445 0.017721634 0.014022244)
(0.21285494 0.01896544 0.015195221)
(0.21392596 0.01227318 0.014143217)
(0.21070345 0.004265189 0.01324481)
(0.21073613 -0.0039586042 0.013246831)
(0.21401644 -0.012002043 0.014149877)
(0.2130087 -0.018747294 0.015209822)
(0.18673621 -0.017604009 0.014032756)
(0.20793558 0.02076009 0.017343924)
(0.23189321 0.020351196 0.018244764)
(0.23131998 0.012971478 0.016881508)
(0.22781858 0.0044911815 0.01588666)
(0.22784966 -0.0041747522 0.015889192)
(0.23140637 -0.012688415 0.016889525)
(0.23204143 -0.020119039 0.018262426)
(0.2081276 -0.020624076 0.017357133)
(0.011589073 0.00032056519 1.4830231e-05)
(0.018185992 0.00099047893 4.3897962e-05)
(0.020479418 0.000811178 4.2984896e-05)
(0.020777698 0.00031019265 3.4224573e-05)
(0.020789137 -0.00025221807 3.4249421e-05)
(0.020508158 -0.00076444266 4.310367e-05)
(0.018227181 -0.0009591649 4.4027477e-05)
(0.011626196 -0.00031600737 1.4961512e-05)
(0.036518345 0.001257921 0.00041016212)
(0.053339729 0.0030734515 0.00062420718)
(0.058940102 0.0024585141 0.00059667652)
(0.059564504 0.00093632989 0.00050877784)
(0.059593506 -0.00078324578 0.00050902714)
(0.059013172 -0.0023337235 0.00059775958)
(0.053447922 -0.0029860132 0.0006259281)
(0.036624486 -0.0012375501 0.00041131052)
(0.062528837 0.0025960468 0.0012330723)
(0.086812712 0.0052494218 0.0017103144)
(0.094544112 0.004093798 0.0016239957)
(0.095238387 0.0015468158 0.00140887)
(0.095279503 -0.0013193148 0.0014095338)
(0.094648307 -0.0039057824 0.0016267567)
(0.086970866 -0.0051125988 0.0017148346)
(0.062693798 -0.0025538718 0.0012360911)
(0.089047819 0.0043199086 0.0024953622)
(0.11833346 0.0074661954 0.0032568663)
(0.12716144 0.0056679326 0.0030723192)
(0.12770669 0.0021212778 0.0026973826)
(0.12775496 -0.0018393558 0.0026986213)
(0.12728469 -0.0054317421 0.0030772937)
(0.11852465 -0.0072887038 0.0032652765)
(0.0892576 -0.0042529129 0.0025009055)
(0.11546862 0.0063677199 0.0041540353)
(0.14762834 0.0096385444 0.0051598531)
(0.15667054 0.0071234764 0.0048332246)
(0.15689784 0.0026402242 0.0042849148)
(0.15694932 -0.0023210505 0.0042868592)
(0.15680313 -0.006852464 0.0048407631)
(0.14783802 -0.0094292168 0.005172973)
(0.11570851 -0.0062753602 0.0041627599)
(0.14115108 0.0086490651 0.0061444291)
(0.17444467 0.011661681 0.0072971685)
(0.18296846 0.0084058041 0.0067839434)
(0.18276385 0.0030873378 0.0060652291)
(0.18281575 -0.0027441086 0.006067976)
(0.18310343 -0.0081105326 0.0067942384)
(0.17466173 -0.011428256 0.0073155431)
(0.14140819 -0.0085323351 0.0061569233)
(0.16543496 0.01103432 0.0083654298)
(0.19859518 0.013425331 0.0095197222)
(0.20598881 0.0094724756 0.008784178)
(0.20529298 0.0034513106 0.0079149234)
(0.20534356 -0.0030933354 0.0079185363)
(0.20612165 -0.009160671 0.0087972982)
(0.19881174 -0.013174165 0.0095436655)
(0.16569938 -0.01089511 0.0083821549)
(0.18767718 0.013309489 0.010595586)
(0.22002783 0.014854613 0.011693117)
(0.22572393 0.010301008 0.010707398)
(0.22453341 0.0037275165 0.0097346452)
(0.22458169 -0.0033608454 0.0097391181)
(0.22585201 -0.0099777605 0.010723204)
(0.22023848 -0.014590061 0.011722596)
(0.18794208 -0.013150529 0.010617327)
(0.010368361 0.00017546768 1.2208496e-05)
(0.016700786 0.00060123766 3.0858338e-05)
(0.019394729 0.00049813217 2.9352013e-05)
(0.020064896 0.00020487643 2.1608372e-05)
(0.020081141 -0.00013095456 2.1677807e-05)
(0.019433173 -0.0004397548 2.9515855e-05)
(0.016755423 -0.00056216044 3.1037695e-05)
(0.010417976 -0.00017015596 1.2384342e-05)
(0.032716911 0.00072084484 0.00023276562)
(0.049141158 0.0019058315 0.0003858581)
(0.055983145 0.0015699555 0.00037061138)
(0.057625747 0.00064144891 0.00029698043)
(0.057667172 -0.00044772962 0.00029741103)
(0.056080649 -0.0014149442 0.00037233144)
(0.049284059 -0.0017966172 0.00038836833)
(0.032858546 -0.00069570626 0.00023447928)
(0.056156726 0.0015212643 0.0007056223)
(0.080280113 0.0033104526 0.0010595546)
(0.090104076 0.0026896082 0.001010778)
(0.092360272 0.0010869195 0.00083042175)
(0.09241912 -0.00080179745 0.00083142806)
(0.090242617 -0.0024580172 0.0010152046)
(0.080487501 -0.0031403043 0.0010661799)
(0.056375493 -0.0014685334 0.00071015748)
(0.080260545 0.0025748372 0.0014440308)
(0.10994881 0.0047907836 0.0020244166)
(0.12169563 0.0038232315 0.0019165636)
(0.12423747 0.0015251052 0.0016018707)
(0.12430658 -0.0011759711 0.001603629)
(0.12185882 -0.0035355109 0.001924576)
(0.11019721 -0.0045718669 0.0020367809)
(0.080536114 -0.00249095 0.0014524497)
(0.10457432 0.0038558786 0.0024316852)
(0.13797263 0.0063016549 0.0032213504)
(0.15069327 0.0049301684 0.0030246462)
(0.15323493 0.0019406215 0.0025637266)
(0.15330856 -0.0015506605 0.0025663955)
(0.15086812 -0.0046042584 0.0030368135)
(0.13824233 -0.0060463368 0.0032406841)
(0.1048857 -0.0037407579 0.0024450402)
(0.1286221 0.0053230905 0.003639837)
(0.16419555 0.0077825847 0.0045829854)
(0.17704363 0.0059687232 0.0042661714)
(0.17934877 0.0023196212 0.003660561)
(0.1794229 -0.0019061695 0.0036642768)
(0.17722115 -0.0056184418 0.0042828106)
(0.16447215 -0.0075015945 0.0046101348)
(0.12895142 -0.0051788301 0.0036590985)
(0.15191415 0.0069108529 0.0050196145)
(0.18851131 0.0091635355 0.0060282878)
(0.20071446 0.0069012591 0.0055639184)
(0.20260164 0.0026506211 0.004828526)
(0.20267374 -0.0022253489 0.0048333951)
(0.20088913 -0.0065362416 0.0055851418)
(0.18878539 -0.0088654301 0.0060637711)
(0.15224836 -0.0067407095 0.0050455849)
(0.17396193 0.0084970423 0.0064539263)
(0.21090742 0.010391068 0.0074940736)
(0.22170015 0.007699837 0.006852641)
(0.22305143 0.0029259903 0.0060234893)
(0.22312019 -0.0024959194 0.0060295561)
(0.22186904 -0.0073259319 0.0068782097)
(0.21117319 -0.010081483 0.0075379891)
(0.17429285 -0.0083051192 0.0064876605)
(0.0095972122 0.00010113692 4.6513458e-06)
(0.01574116 0.0003877009 1.8607544e-05)
(0.018680311 0.00031039471 1.8121786e-05)
(0.019613863 0.00014455326 1.2385584e-05)
(0.01963728 -4.5989763e-05 1.2498998e-05)
(0.01873038 -0.00023439859 1.8372689e-05)
(0.015811526 -0.00033742323 1.8902926e-05)
(0.0096610655 -9.5274561e-05 5.0066836e-06)
(0.030368961 0.00043614463 0.00012734758)
(0.046462939 0.0012340708 0.0002375031)
(0.054070305 0.001006168 0.00023224735)
(0.056447307 0.00045932384 0.00017652064)
(0.056507388 -0.000201967 0.00017707742)
(0.054196689 -0.00080469818 0.00023460624)
(0.046646145 -0.0010925944 0.00024096679)
(0.030551296 -0.00040549269 0.0001300228)
(0.05225858 0.00093892322 0.00039707764)
(0.07612516 0.0021549887 0.00065267973)
(0.087255026 0.0017604796 0.00063257481)
(0.09066126 0.00078634194 0.00049556859)
(0.090746593 -0.00041031283 0.00049671049)
(0.087433185 -0.0014612535 0.00063863704)
(0.076388399 -0.0019347253 0.00066173834)
(0.052538288 -0.00087279974 0.00040384159)
(0.074898015 0.0016098429 0.0008250932)
(0.1045982 0.0031419058 0.0012487474)
(0.11819946 0.0025530356 0.0011992496)
(0.12224898 0.0011143914 0.00095962605)
(0.12234882 -0.00065865479 0.00096149729)
(0.11840715 -0.0021846532 0.0012102812)
(0.10490908 -0.0028598668 0.0012656609)
(0.075246191 -0.001503509 0.00083749711)
(0.097902397 0.0024361049 0.0014055863)
(0.13175301 0.0041733086 0.0019915463)
(0.14686562 0.0033587083 0.0018945162)
(0.15120851 0.0014336232 0.0015429425)
(0.15131418 -0.00093101479 0.0015457324)
(0.14708557 -0.0029462378 0.0019114137)
(0.13208488 -0.0038470174 0.0020181038)
(0.098289592 -0.0022898229 0.0014252256)
(0.12087422 0.0033969129 0.0021260835)
(0.15748014 0.0052173514 0.0028432606)
(0.1732222 0.0041502289 0.0026788087)
(0.17755104 0.0017351138 0.0022161463)
(0.17765645 -0.0012098457 0.0022200718)
(0.17344294 -0.003712763 0.002702159)
(0.15781436 -0.0048620474 0.0028807595)
(0.121276 -0.0032140698 0.0021544672)
(0.14340748 0.0044579939 0.0029633014)
(0.18171298 0.0062338381 0.0037598007)
(0.19724977 0.004900221 0.0035090498)
(0.20130639 0.0020105851 0.0029460767)
(0.20140786 -0.0014784896 0.0029513537)
(0.19746484 -0.0044507233 0.0035391641)
(0.18203842 -0.0058615581 0.0038090987)
(0.1438068 -0.0042435631 0.0030016856)
(0.16509374 0.0055491463 0.0038555972)
(0.20446081 0.00719048 0.0047119864)
(0.21894062 0.0055846496 0.0043500673)
(0.22252789 0.0022532925 0.003712686)
(0.22262355 -0.0017233694 0.0037195064)
(0.21914724 -0.0051306045 0.0043867621)
(0.20477177 -0.0068091534 0.0047734918)
(0.1654809 -0.0053090821 0.0039053982)
(0.0091618709 5.161661e-05 6.9305579e-07)
(0.015173557 0.00026406065 1.0618145e-05)
(0.01824172 0.00019664596 1.0550147e-05)
(0.019338843 0.00011524925 6.6019452e-06)
(0.019372594 2.1041318e-05 6.9107532e-06)
(0.018310906 -9.6850392e-05 1.0655784e-05)
(0.015267075 -0.00020033584 1.0890363e-05)
(0.0092457216 -4.6668269e-05 1.127951e-06)
(0.029021522 0.00025698973 5.7726034e-05)
(0.044858907 0.00083724036 0.00013429861)
(0.05288953 0.00065189257 0.0001372829)
(0.055736687 0.00036206668 9.9386829e-05)
(0.055824461 -5.5780996e-06 9.9862873e-05)
(0.053062355 -0.00038611842 0.0001397822)
(0.04510086 -0.00065526366 0.00013871262)
(0.029260844 -0.00022395789 6.1722079e-05)
(0.049999612 0.00058131605 0.00019213434)
(0.073615169 0.0014592086 0.00037095189)
(0.085492243 0.0011598572 0.00037517736)
(0.089654422 0.00061453275 0.00028180194)
(0.089779483 -9.520807e-05 0.00028198662)
(0.085732371 -0.00076546286 0.00038230356)
(0.073958151 -0.0011745027 0.00038312682)
(0.050363183 -0.00050531327 0.00020259104)
(0.071763592 0.0010230873 0.00041347561)
(0.10133721 0.0021282144 0.00071325973)
(0.11603229 0.0017087687 0.00071323742)
(0.12110043 0.00086499231 0.00054944946)
(0.12124635 -0.00023928549 0.00054915481)
(0.11630696 -0.0012250595 0.00072696039)
(0.10173447 -0.0017633833 0.00073672716)
(0.072208986 -0.00089730231 0.00043329562)
(0.093966749 0.0015745896 0.00072301415)
(0.12792164 0.0028350891 0.0011437158)
(0.14448731 0.0022840597 0.0011302002)
(0.15008335 0.0011083552 0.0008891541)
(0.15023664 -0.0004240041 0.00088862212)
(0.14477162 -0.0017456863 0.0011520878)
(0.1283354 -0.0024138887 0.0011813295)
(0.094451484 -0.00139893 0.00075504065)
(0.11625345 0.0022242969 0.0011182793)
(0.15328454 0.0035641997 0.0016428466)
(0.17083857 0.0028692757 0.0016041365)
(0.1766205 0.001340682 0.001285996)
(0.17677161 -0.00063282432 0.0012857703)
(0.17111668 -0.0023025848 0.0016353938)
(0.1536894 -0.0031074348 0.0016967128)
(0.11674317 -0.0020028397 0.0011650224)
(0.13826241 0.0029533761 0.0015906645)
(0.17738144 0.0042934655 0.002187705)
(0.19507407 0.003446201 0.0021111103)
(0.20074248 0.0015578498 0.0017229299)
(0.20088565 -0.00084925357 0.0017237013)
(0.19533796 -0.0028688664 0.0021525518)
(0.17776353 -0.003817486 0.0022592228)
(0.13873428 -0.0026921272 0.0016539596)
(0.1596301 0.0037188286 0.0021091566)
(0.20023592 0.0050046877 0.0027651783)
(0.21718675 0.0039967452 0.0026309177)
(0.22249731 0.0017557439 0.0021898791)
(0.22262981 -0.0010590801 0.0021924798)
(0.21743404 -0.0034187388 0.002682549)
(0.20058971 -0.004520366 0.0028550811)
(0.16007237 -0.0034249163 0.0021904455)
(0.0089381146 1.3316105e-05 -2.8920606e-06)
(0.014876153 0.0001895225 4.8518151e-06)
(0.018003343 0.00011986144 4.8679155e-06)
(0.019178942 0.00010456322 2.6144434e-06)
(0.019237199 9.2034608e-05 2.189906e-06)
(0.018100756 1.6818901e-05 5.0128053e-06)
(0.014997443 -0.00010987381 5.9702394e-06)
(0.0090396711 -1.3202302e-05 -1.3888801e-06)
(0.028325498 0.00012770779 7.6832741e-06)
(0.04401206 0.00059226337 5.8053907e-05)
(0.052246157 0.00040866574 6.6405118e-05)
(0.055332012 0.0003196642 4.4099426e-05)
(0.055484907 0.00019665237 4.1490795e-05)
(0.052489596 -4.2798135e-05 6.258315e-05)
(0.044322947 -0.0003585094 5.7118072e-05)
(0.028618542 -0.00010257245 1.1693503e-05)
(0.048829727 0.00033452243 4.5687971e-05)
(0.07228291 0.0010210052 0.00016077254)
(0.084533991 0.0007426252 0.00018262106)
(0.089100178 0.00053048701 0.00012747849)
(0.089317693 0.00022099588 0.00012179203)
(0.084869332 -0.00019917099 0.00017622599)
(0.072718775 -0.00065108684 0.00016336721)
(0.049272773 -0.00026099775 5.320852e-05)
(0.070133316 0.00062799373 0.00011667102)
(0.099594883 0.0014780917 0.00031100422)
(0.11486013 0.0011154688 0.0003488961)
(0.12050114 0.00073115434 0.00025184956)
(0.12075261 0.00017114885 0.00024320834)
(0.11523764 -0.00044937748 0.00034333811)
(0.10009148 -0.0010009247 0.00032383375)
(0.070668579 -0.0004943788 0.00013194732)
(0.091905038 0.001002021 0.00022626494)
(0.12585712 0.0019617962 0.00050304828)
(0.14321196 0.0015193462 0.00055568974)
(0.14954873 0.000920138 0.0004124395)
(0.1498086 6.1457527e-05 0.00040181231)
(0.14359385 -0.00077955173 0.00055642512)
(0.12636247 -0.0014085539 0.00053256185)
(0.092475235 -0.00080603112 0.00025476722)
(0.11380817 0.0014494482 0.00037862553)
(0.1510002 0.0024663474 0.00073020857)
(0.16957974 0.0019448081 0.00079307771)
(0.17626272 0.0010978419 0.00060355224)
(0.17651294 -8.9597757e-05 0.00059248562)
(0.16994226 -0.0011687703 0.00080577346)
(0.15148006 -0.0018646693 0.00078192073)
(0.11436812 -0.0011946424 0.00042603981)
(0.13550459 0.0019598896 0.00057520316)
(0.17499469 0.0029806587 0.00098362998)
(0.19395883 0.0023798349 0.0010494881)
(0.20067368 0.0012641944 0.00081786856)
(0.2009036 -0.00026329696 0.00080817509)
(0.19429056 -0.0015927658 0.0010786684)
(0.17543157 -0.0023525557 0.0010619171)
(0.13602578 -0.0016523805 0.0006463112)
(0.15665764 0.0025065339 0.00080614783)
(0.19787746 0.0034951805 0.0012602133)
(0.21634728 0.0028109221 0.001314425)
(0.22282713 0.001418169 0.0010510381)
(0.2230321 -0.00044332799 0.0010445524)
(0.21664563 -0.0020271913 0.0013626112)
(0.19826607 -0.0028558369 0.0013684164)
(0.1571273 -0.0021539706 0.00090479511)
(0.0088509689 -3.2978638e-05 -4.5963531e-06)
(0.014788337 0.00012826258 -3.6206039e-07)
(0.017922166 3.6775868e-05 -1.1345687e-07)
(0.019099624 0.00010117682 -1.2458809e-06)
(0.019192666 0.00019013179 -2.7262361e-06)
(0.018156285 0.00013469653 -7.4290934e-06)
(0.015086479 -4.4928855e-05 -1.4460241e-05)
(0.0090221117 6.0430948e-06 -4.8904689e-06)
(0.028068021 -1.8754124e-05 -3.9820717e-05)
(0.043761708 0.00039071174 -1.1168549e-05)
(0.052029494 0.00015811884 1.2747651e-06)
(0.055144186 0.00030294125 -6.8424362e-06)
(0.055391264 0.00046704799 -3.1949972e-05)
(0.052554111 0.00030707508 -4.3331029e-05)
(0.044310338 -0.00013182892 -3.7051829e-05)
(0.028552179 -2.0581093e-05 -3.6597001e-05)
(0.048424523 7.3832214e-05 -9.4832563e-05)
(0.07189163 0.00066182565 -3.0811149e-05)
(0.084222811 0.00032985959 5.4177377e-06)
(0.088871578 0.00049153443 -1.3776208e-05)
(0.089222271 0.000629886 -6.7324095e-05)
(0.084886239 0.00037037199 -7.199946e-05)
(0.072585336 -0.00024278598 -4.6062413e-05)
(0.049126866 -8.4781765e-05 -8.3344818e-05)
(0.069595572 0.00023769141 -0.00016514848)
(0.099083552 0.0009487024 -5.6464143e-05)
(0.1145014 0.00055004165 1.3736482e-05)
(0.1203044 0.00066061011 -1.9142839e-05)
(0.12070487 0.00068317237 -9.8668842e-05)
(0.11518598 0.0003175178 -8.17566e-05)
(0.09982704 -0.00039584816 -5.4073751e-05)
(0.070407353 -0.00019769489 -0.00013618809)
(0.091243153 0.00046767083 -0.00024130331)
(0.12524823 0.0012567027 -8.3059001e-05)
(0.14285796 0.00081445551 2.7752882e-05)
(0.14945728 0.00081101411 -1.9846044e-05)
(0.14986304 0.00064513634 -0.00011595346)
(0.14348934 0.0001577546 -6.6193954e-05)
(0.12596488 -0.00060069274 -5.7369059e-05)
(0.092067797 -0.00036579867 -0.00018527318)
(0.11302854 0.00075924154 -0.00031293665)
(0.15032239 0.0015875897 -0.00010628071)
(0.16928897 0.0011165606 4.8143961e-05)
(0.17634955 0.00094701553 -1.3674211e-05)
(0.17673018 0.00054041112 -0.00011504231)
(0.16983146 -8.8171727e-05 -2.6172862e-05)
(0.15096265 -0.00085800397 -4.841001e-05)
(0.11379521 -0.0005904623 -0.00022113121)
(0.1346188 0.0011070463 -0.00037006651)
(0.17428686 0.0019377096 -0.00012335343)
(0.19379675 0.0014463124 7.3500877e-05)
(0.2010106 0.0010723832 -5.0783949e-07)
(0.20134949 0.00039396287 -9.720143e-05)
(0.19424273 -0.00039452701 3.1907954e-05)
(0.17482813 -0.0011593633 -2.3967901e-05)
(0.13528661 -0.00086946775 -0.00023528349)
(0.15568917 0.0014959855 -0.00040233481)
(0.19719086 0.0023027852 -0.00012799327)
(0.21638659 0.0017912398 0.00010211355)
(0.22348454 0.0011889958 1.8510954e-05)
(0.22377615 0.00022737652 -6.5637589e-05)
(0.21674596 -0.00073529211 0.00010024421)
(0.19763107 -0.0014927037 1.9236378e-05)
(0.1562439 -0.001190476 -0.00021994543)
(0.0089433188 -9.7859399e-05 -2.2219869e-05)
(0.014923417 8.9210118e-05 -7.4544507e-06)
(0.018023656 -9.018088e-05 -6.4654968e-06)
(0.019073257 7.442186e-05 -6.4474158e-06)
(0.019475855 0.000411619 -4.1777986e-05)
(0.018578596 0.00043288627 -4.6148699e-05)
(0.01517054 -0.00029673599 4.6195452e-05)
(0.0091228596 -0.00020531865 -2.0227126e-05)
(0.028359378 -0.00013639925 -0.00017351816)
(0.044147591 0.00022984341 -9.4243406e-05)
(0.05229513 -0.00020894192 -7.533776e-05)
(0.055100017 0.00023387238 -8.2105556e-05)
(0.055956515 0.00099660375 -0.00026934278)
(0.053367533 0.0010410262 -0.00076295566)
(0.044674439 -0.00030877442 1.5106436e-05)
(0.02886396 -0.00013445864 -0.0001364175)
(0.048918353 -0.00010382729 -0.0002949539)
(0.07249822 0.00033040794 -0.00025337198)
(0.084626526 -0.0002518674 -0.00020141363)
(0.08886162 0.00038208012 -0.00021355618)
(0.089905756 0.0013510231 -0.00052111288)
(0.08586797 0.0014461255 -0.0012756133)
(0.073342471 -0.00015995622 -0.00021419749)
(0.049660737 -6.9062039e-05 -0.00030716505)
(0.070277892 -4.4663588e-05 -0.00050178631)
(0.099866031 0.00042601287 -0.00048160017)
(0.11502374 -0.00021420218 -0.00037425066)
(0.12038212 0.00050847581 -0.00038602664)
(0.12141731 0.0015062322 -0.00076389947)
(0.11620676 0.0016622796 -0.0015950316)
(0.10083525 4.8625663e-05 -0.0005362582)
(0.071147159 -1.0773632e-05 -0.00053879639)
(0.092079776 4.1169013e-05 -0.00077567405)
(0.12615574 0.00053904308 -0.00075750097)
(0.14348788 -9.7990044e-05 -0.0005777832)
(0.14967384 0.00061578229 -0.00058061415)
(0.15058608 0.0015093112 -0.0009726813)
(0.14449738 0.0016855653 -0.0017388031)
(0.12709624 0.00019538458 -0.00087052653)
(0.092963025 6.8222034e-06 -0.00081088513)
(0.11397405 0.00016102817 -0.0010970276)
(0.1513083 0.00068531496 -0.0010628956)
(0.17002674 8.9974275e-05 -0.00079847901)
(0.17675449 0.0007120637 -0.0007840451)
(0.17749674 0.0014089186 -0.0011461892)
(0.17081781 0.001550422 -0.0017712343)
(0.15212484 0.00025310166 -0.0011767014)
(0.11478211 -1.1397752e-05 -0.0010997656)
(0.13562784 0.0003221627 -0.0014446949)
(0.17531721 0.00087177016 -0.0013813449)
(0.19465624 0.00033687418 -0.0010266147)
(0.20165282 0.00080435418 -0.00098908036)
(0.20222321 0.0012472369 -0.0012939023)
(0.19522999 0.0013011401 -0.0017550869)
(0.17596428 0.00021230088 -0.0014413845)
(0.13630483 -7.2557549e-05 -0.0013832011)
(0.15672516 0.00052859052 -0.0017831505)
(0.19824778 0.0011003293 -0.0016944957)
(0.21739498 0.00062606718 -0.0012523846)
(0.22441313 0.00089690216 -0.0011893131)
(0.22483645 0.0010575015 -0.0014251483)
(0.21778201 0.00098091198 -0.001735113)
(0.19871903 7.7635483e-05 -0.0016606404)
(0.15724859 -0.00017958312 -0.0016361794)
(0.0090641359 -0.00037891677 -1.2037047e-05)
(0.015397591 9.689379e-06 -1.8864358e-05)
(0.018369484 -0.00036112278 -1.8260961e-05)
(0.019170226 0.00015498461 -3.4395183e-05)
(0.020442425 0.00081708146 -0.00026464357)
(0.028816492 0.00039199388 -0.00086451222)
(0.01600233 -0.00058967306 -6.0156797e-05)
(0.009559238 -6.5994558e-05 -2.7688901e-05)
(0.029276616 -0.00075694221 -0.00040325255)
(0.045518224 -5.6357588e-05 -0.00025578439)
(0.053206478 -0.00096481706 -0.00024288858)
(0.055328244 0.00027223184 -0.00030459996)
(0.057253378 0.0018112405 -0.0024521105)
(0.06210849 0.0019586868 -0.002639248)
(0.047254206 -6.4452739e-05 -0.00047350312)
(0.030162906 -0.00015198585 -0.00025656594)
(0.050653602 -0.00088977632 -0.00076588726)
(0.074626859 -0.00020855073 -0.00067142199)
(0.085974056 -0.0014127628 -0.00062377693)
(0.089185563 0.00026758695 -0.00072823529)
(0.090959325 0.0023843535 -0.0038390582)
(0.091400458 0.0029129349 -0.0035019729)
(0.077081369 0.00071097644 -0.0010230159)
(0.051784904 7.1224079e-05 -0.00061680684)
(0.072795724 -0.00095236538 -0.0012612366)
(0.10257668 -0.00038134906 -0.0012389427)
(0.11668105 -0.001690896 -0.0011170459)
(0.12078054 0.00019427704 -0.0012288001)