/*--------------------------------*- C++ -*----------------------------------*\
  =========                 |
  \\      /  F ield         | OpenFOAM: The Open Source CFD Toolbox
   \\    /   O peration     | Website:  https://openfoam.org
    \\  /    A nd           | Version:  13
     \\/     M anipulation  |
\*---------------------------------------------------------------------------*/
FoamFile
{
    format      ascii;
    class       surfaceScalarField;
    location    "0.07";
    object      alphaPhi.water;
}
// * * * * * * * * * * * * * * * * * * * * * * * * * * * * * * * * * * * * * //

dimensions      [0 3 -1 0 0 0 0];

internalField   nonuniform List<scalar> 
150720
(
0
0
0
0
0
0
0
0
0
0
0
0
0
0
0
0
0
0
0
0
0
0
0
0
0
0
0
0
0
0
0
0
0
0
0
0
0
0
0
0
0
0
0
0
0
0
0
0
0
0
0
0
0
0
0
0
0
0
0
0
0
0
0
0
0
0
0
0
0
0
0
0
0
0
0
0
0
0
0
0
0
0
0
0
0
0
0
0
0
0
0
0
0
0
0
0
0
0
0
0
0
0
0
0
0
0
0
0
0
0
0
0
0
0
0
0
0
0
0
0
0
0
0
0
0
0
0
0
0
0
0
0
0
0
0
0
0
0
0
0
0
0
0
0
0
0
0
0
0
0
0
0
0
0
0
0
0
0
0
0
0
0
0
0
0
0
0
0
0
0
0
0
0
0
0
0
0
0
0
0
0
0
0
0
0
0
0
0
0
0
0
0
0
0
0
0
0
0
0
0
0
0
0
0
0
0
0
0
0
0
0
0
0
0
0
0
0
0
0
0
0
0
0
0
0
0
0
0
0
0
0
0
0
0
0
0
0
0
0
0
0
0
0
0
0
0
0
0
0
0
0
0
0
0
0
0
0
0
0
0
0
0
0
0
0
0
0
0
0
0
0
0
0
0
0
0
0
0
0
0
0
0
0
0
0
0
0
0
0
0
0
0
0
0
0
0
0
0
0
0
0
0
0
0
0
0
0
0
0
0
0
0
0
0
0
0
0
0
0
0
0
0
0
0
0
0
0
0
0
0
0
0
0
0
0
0
0
0
0
0
0
0
0
0
0
0
0
0
0
0
0
0
0
0
0
0
0
0
0
0
0
0
0
0
0
0
0
0
0
0
0
0
0
0
0
0
0
0
0
0
0
0
0
0
0
0
0
0
0
0
0
0
0
0
0
0
0
0
0
0
0
0
0
0
0
0
0
0
0
0
0
0
0
0
0
0
0
0
0
0
0
0
0
0
0
0
0
0
0
0
0
0
0
0
0
0
0
0
0
0
0
0
0
0
0
0
0
0
0
0
0
0
0
0
0
0
0
0
0
0
0
0
0
0
0
0
0
0
0
0
0
0
0
0
0
0
0
0
0
0
0
0
0
0
0
0
0
0
0
0
0
0
0
0
0
0
0
0
0
0
0
0
0
0
0
0
0
0
0
0
0
0
0
0
0
0
0
0
0
0
0
0
0
0
0
0
0
0
0
0
0
0
0
0
0
0
0
0
0
0
0
0
0
0
0
0
0
0
0
0
0
0
0
0
0
0
0
0
0
0
0
0
0
0
0
0
0
0
0
0
0
0
0
0
0
0
0
0
0
0
0
0
0
0
0
0
0
0
0
0
0
0
0
0
0
0
0
0
0
0
0
0
0
0
0
0
0
0
0
0
0
0
0
0
0
0
0
0
0
0
0
0
0
0
0
0
0
0
0
0
0
0
0
0
0
0
0
0
0
0
0
0
0
0
0
0
0
0
0
0
0
0
0
0
0
0
0
0
0
0
0
0
0
0
0
0
0
0
0
0
0
0
0
0
0
0
0
0
0
0
0
0
0
0
0
0
0
0
0
0
0
0
0
0
0
0
0
0
0
0
0
0
0
0
0
0
0
0
0
0
0
0
0
0
0
0
0
0
0
0
0
0
0
0
0
0
0
0
0
0
0
0
0
0
0
0
0
0
0
0
0
0
0
0
0
0
0
0
0
0
0
0
0
0
0
0
0
0
0
0
0
0
0
0
0
0
0
0
0
0
0
0
0
0
0
0
0
0
0
0
0
0
0
0
0
0
0
0
0
0
0
0
0
0
0
0
0
0
0
0
0
0
0
0
0
0
0
0
0
0
0
0
0
0
0
0
0
0
0
0
0
0
0
0
0
0
0
0
0
0
0
0
0
0
0
0
0
0
0
0
0
0
0
0
0
0
0
0
0
0
0
0
0
0
0
0
0
0
0
0
0
0
0
0
0
0
0
0
0
0
0
0
0
0
0
0
0
0
0
0
0
0
0
0
0
0
0
0
0
0
0
0
0
0
0
0
0
0
0
0
0
0
0
0
0
0
0
0
0
0
0
0
0
0
0
0
0
0
0
0
0
0
0
0
0
0
0
0
0
0
0
0
0
0
0
0
0
0
0
0
0
0
0
0
0
0
0
0
0
0
0
0
0
0
0
0
0
0
0
0
0
0
0
0
0
0
0
0
0
0
0
0
0
0
0
0
0
0
0
0
0
0
0
0
0
0
0
0
0
0
0
0
0
0
0
0
0
0
0
0
0
0
0
0
0
0
0
0
0
0
0
0
0
0
0
0
0
0
0
0
0
0
0
0
0
0
0
0
0
0
0
0
0
0
0
0
0
0
0
0
0
0
0
0
0
0
0
0
0
0
0
0
0
0
0
0
0
0
0
0
0
0
0
0
0
0
0
0
0
0
0
0
0
0
0
0
0
0
0
0
0
0
0
0
0
0
0
0
0
0
0
0
0
0
0
0
0
0
0
0
0
0
0
0
0
0
0
0
0
0
0
0
0
0
0
0
0
0
0
0
0
0
0
0
0
0
0
0
0
0
0
0
0
0
0
0
0
0
0
0
0
0
0
0
0
0
0
0
0
0
0
0
0
0
0
0
0
0
0
0
0
0
0
0
0
0
0
0
0
0
0
0
0
0
0
0
0
0
0
0
0
0
0
0
0
0
0
0
0
0
0
0
0
0
0
0
0
0
0
0
0
0
0
0
0
0
0
0
0
0
0
0
0
0
0
0
0
0
0
0
0
0
0
0
0
0
0
0
0
0
0
0
0
0
0
0
0
0
0
0
0
0
0
0
0
0
0
0
0
0
0
0
0
0
0
0
0
0
0
0
0
0
0
0
0
0
0
0
0
0
0
0
0
0
0
0
0
0
0
0
0
0
0
0
0
0
0
0
0
0
0
0
0
0
0
0
0
0
0
0
0
0
0
0
0
0
0
0
0
0
0
0
0
0
0
0
0
0
0
0
0
0
0
0
0
0
0
0
0
0
0
0
0
0
0
0
0
0
0
0
0
0
0
0
0
0
0
0
0
0
0
0
0
0
0
0
0
0
0
0
0
0
0
0
0
0
0
0
0
0
0
0
0
0
0
0
0
0
0
0
0
0
0
0
0
0
0
0
0
0
0
0
0
0
0
0
0
0
0
0
0
0
0
0
0
0
0
0
0
0
0
0
0
0
0
0
0
0
0
0
0
0
0
0
0
0
0
0
0
0
0
0
0
0
0
0
0
0
0
0
0
0
0
0
0
0
0
0
0
0
0
0
0
0
0
0
0
0
0
0
0
0
0
0
0
0
0
0
0
0
0
0
0
0
0
0
0
0
0
0
0
0
0
0
0
0
0
0
0
0
0
0
0
0
0
0
0
0
0
0
0
0
0
0
0
0
0
0
0
0
0
0
0
0
0
0
0
0
0
0
0
0
0
0
0
0
0
0
0
0
0
0
0
0
0
0
0
0
0
0
0
0
0
0
0
0
0
0
0
0
0
0
0
0
0
0
0
0
0
0
0
0
0
0
0
0
0
0
0
0
0
0
0
0
0
0
0
0
0
0
0
0
0
0
0
0
0
0
0
0
0
0
0
0
0
0
0
0
0
0
4.4528468e-39
8.6852011e-39
8.7781804e-37
1.3847199e-41
2.6178071e-44
8.2070866e-44
4.4527386e-39
9.2535942e-50
5.1053343e-49
2.6177468e-44
3.0654904e-56
1.4671263e-54
9.2534444e-50
-9.0758722e-51
1.4358953e-55
9.0757593e-51
-3.5525046e-48
1.0879686e-48
2.4554601e-48
-5.2613321e-43
5.9862268e-44
4.662675e-43
2.3766384e-39
4.6997179e-38
-2.0581756e-38
1.2113954e-43
3.7257769e-43
8.5380832e-39
4.94972e-49
3.6078914e-48
1.4279525e-47
2.0319252e-43
4.8154154e-53
1.5079735e-52
4.118225e-48
4.5813284e-59
3.0198585e-57
4.9618215e-53
-5.4684819e-49
3.2810537e-53
5.4681552e-49
-1.2955856e-46
3.8586999e-48
1.2624107e-46
-6.348388e-42
1.4146456e-43
6.2666562e-42
9.8506857e-39
3.1231425e-37
1.0541576e-41
7.7590537e-48
3.4929019e-47
3.7253481e-43
1.8973838e-49
3.2738619e-52
1.6790465e-51
2.2036569e-47
1.9715699e-56
7.4748253e-56
4.7808876e-52
3.2341374e-62
1.5051613e-60
2.273402e-56
-6.9517702e-50
1.7860381e-53
6.9553189e-50
-1.1169654e-47
3.0222466e-49
1.4656612e-47
-3.0308389e-43
1.0710631e-44
4.3360962e-43
1.8954631e-41
1.444239e-38
1.2752818e-42
9.9297229e-52
5.9628457e-51
3.4922031e-47
3.1533071e-53
1.5147663e-42
9.4447754e-42
3.2425827e-40
2.5809587e-44
1.4581667e-42
4.2476132e-41
3.6848163e-49
4.9996336e-45
2.3444958e-43
-1.1106616e-51
6.9523176e-50
3.0001283e-49
-6.1256407e-49
2.9769056e-50
8.8260995e-49
-3.8080602e-44
5.6935601e-46
3.7013978e-44
2.3575636e-45
1.8506207e-41
6.8909788e-46
1.0776584e-55
1.6107932e-54
5.9611191e-51
7.9800835e-57
2.4656435e-43
2.3926704e-43
5.0367676e-41
1.7208246e-45
1.1790862e-44
5.0637664e-42
5.1048419e-49
2.3699698e-45
9.6167332e-44
-2.0156814e-51
9.9757761e-50
3.2943218e-48
-9.6788388e-49
2.1617972e-50
7.0734231e-49
-7.4031818e-49
7.5871761e-50
3.9515903e-46
3.5131415e-48
2.3531136e-45
1.9654831e-49
1.5641046e-54
6.3246138e-58
4.5908771e-56
2.8861422e-60
5.0376968e-45
4.3234952e-46
9.8035235e-43
2.7148298e-47
2.6446992e-48
5.0639223e-44
1.3000506e-49
7.7999829e-48
6.5638058e-45
-8.2124571e-53
3.6475082e-50
9.3635677e-49
-7.4707714e-53
1.0042733e-53
1.7857499e-50
-3.5722846e-52
5.2463206e-53
7.5749921e-50
1.7881218e-50
3.4948252e-48
7.7889464e-53
5.8835365e-58
3.2130604e-61
4.3783853e-59
1.3893552e-63
8.9924729e-48
8.3426782e-49
1.671178e-45
5.9165534e-50
1.32949e-50
2.8603765e-47
2.0620275e-51
7.1858536e-51
1.922952e-47
-1.1941866e-55
6.5813036e-52
1.0077984e-49
-3.2721618e-55
1.0822039e-55
1.6191984e-53
-2.245277e-55
2.9192699e-56
5.2302293e-53
1.0625494e-56
1.7880904e-50
7.9122576e-56
3.1576769e-61
2.1954887e-63
8.0685124e-67
4.3026789e-64
4.4091671e-51
8.035901e-49
2.633332e-50
2.7494077e-53
1.7179843e-50
4.9673079e-52
4.459014e-55
7.037394e-51
1.7550779e-52
-5.4297638e-58
1.075726e-51
2.6572519e-53
-1.7564115e-58
1.0757155e-55
2.8390185e-58
-1.7107678e-58
2.767891e-56
1.5092248e-57
1.7743761e-57
3.2966706e-59
8.47711e-57
1.8321688e-29
2.4176705e-29
1.2862517e-27
2.1073774e-31
5.7711316e-29
1.050978e-28
9.6563972e-27
4.0997718e-26
1.0855138e-25
1.1136716e-23
1.0892926e-25
2.6070201e-24
3.6713026e-22
-2.0912256e-53
7.4313559e-26
9.7883186e-24
-2.6260319e-48
1.5102921e-52
5.0785869e-48
-2.772061e-43
8.4631188e-48
7.4346251e-43
5.2678086e-43
8.1166402e-38
-3.4170027e-38
1.4739515e-34
3.6714941e-34
2.4176177e-29
1.273254e-35
1.3880131e-30
2.615069e-30
1.8720397e-28
6.7176148e-28
7.7521845e-30
1.6695542e-25
1.2142557e-27
1.6100986e-28
4.078134e-24
-1.6942437e-51
4.6070192e-30
1.1877961e-25
-1.1169371e-46
1.3599461e-50
2.3791701e-46
-2.9342959e-42
4.6116212e-46
9.2003878e-42
8.8016762e-42
3.1230304e-37
7.1515728e-45
9.7234528e-29
4.5562527e-28
2.6585027e-26
8.1538976e-30
3.5166823e-32
5.6967658e-30
2.8656958e-28
1.6916404e-32
3.6417528e-34
7.7701028e-30
4.6363238e-32
2.3287324e-32
1.6095729e-28
-3.2337019e-51
1.0490543e-33
4.6523331e-30
-2.5759168e-47
9.6762788e-51
4.0431534e-47
-2.1015834e-43
1.4135747e-46
6.4441014e-43
1.7936884e-39
1.2634893e-38
2.2399049e-41
6.6048499e-30
1.968051e-30
1.8610599e-27
1.5886726e-32
1.5365451e-33
6.7709104e-32
2.7013762e-29
8.2187393e-36
3.2705616e-37
1.8969744e-33
1.2472679e-35
5.279778e-36
2.3314373e-32
-9.5109263e-40
1.4908423e-37
1.0619001e-33
-7.3547208e-40
1.0715168e-38
4.0109745e-37
-1.1042812e-35
9.8615813e-36
1.1812409e-36
8.6118973e-34
3.2024072e-32
1.4084598e-35
1.6969055e-32
6.3144083e-34
4.9433469e-30
5.3280878e-34
1.6841173e-35
2.5968808e-35
1.5434092e-31
1.2711882e-38
8.2967271e-37
2.5397465e-35
4.7424233e-40
1.1010277e-41
5.2920048e-36
-2.1103469e-40
4.886116e-41
1.4999095e-37
-4.0417214e-38
3.8946008e-39
1.3346204e-37
-1.2889104e-34
2.2039801e-35
6.2423071e-34
7.4907039e-34
3.998487e-32
1.524162e-36
1.0058618e-36
2.1935399e-37
6.3165596e-34
2.8966112e-37
7.5086803e-39
1.5925031e-38
2.7065125e-35
2.4884293e-39
2.3962502e-39
1.5314603e-36
2.2725091e-44
1.4459248e-41
3.0035095e-39
-6.3865669e-43
1.9401167e-44
4.9503374e-41
-4.2219375e-39
7.9851751e-40
2.2205619e-38
-1.5901643e-35
3.2551353e-37
8.7006011e-35
1.5578795e-35
5.0625496e-33
2.9606932e-38
2.7077274e-40
1.1116365e-40
2.1886834e-37
1.0320258e-40
1.0942688e-41
9.6519457e-42
1.6177904e-38
6.4953078e-42
1.506363e-42
4.4862463e-39
1.6398817e-46
1.1225747e-44
3.843484e-41
-5.3961832e-44
4.8625223e-45
6.8728208e-44
-6.6348453e-41
4.9501408e-41
2.0303923e-39
-1.4563305e-37
2.8725052e-40
1.0185486e-36
1.4287794e-38
4.7115974e-35
1.1380841e-40
9.8954162e-44
1.0832093e-40
4.6565407e-44
2.6972038e-42
8.0645783e-45
9.492257e-42
2.5058123e-43
6.2169799e-46
1.4793072e-42
3.4498718e-44
2.8198367e-48
1.2110774e-44
2.4168659e-46
-1.2674141e-43
2.0306612e-43
7.1262458e-45
-1.7256724e-43
8.6659879e-41
2.0906217e-42
-3.2207668e-41
3.123894e-40
7.8557477e-42
1.4015087e-38
6.0938117e-44
2.5946717e-40
4.3233974e-30
3.884787e-28
5.8446601e-28
2.9527824e-28
6.4452128e-27
8.3172012e-27
4.9028376e-25
1.744538e-24
3.7245035e-24
4.262017e-22
1.5423399e-23
1.8842088e-22
1.4962454e-20
0
2.6168721e-24
2.2024142e-22
-1.2229956e-19
2.2406861e-21
2.0203652e-19
-3.338803e-20
1.7020866e-19
5.4387611e-17
2.40612e-21
3.7834853e-19
-3.538497e-37
1.0165255e-25
3.6297431e-25
4.0897342e-23
1.7756839e-26
7.8739307e-28
4.690764e-28
1.2755122e-25
2.4167943e-26
0
5.9466036e-24
1.2414355e-25
8.1327858e-27
2.3567121e-22
-1.2042975e-25
1.2342182e-28
3.4251208e-24
-7.159433e-22
1.7271474e-25
3.7429541e-21
-1.1648009e-22
7.1725784e-24
2.3757262e-19
1.3839317e-25
8.4040623e-22
1.6604315e-25
5.2970732e-30
1.0445594e-27
9.0928967e-25
7.0523569e-28
3.5530847e-30
9.9347077e-31
1.9177475e-27
2.164344e-30
0
1.3895949e-27
3.9702698e-30
9.7783379e-31
8.2912272e-27
-5.9147203e-30
1.4200323e-32
1.3794795e-28
-1.8654866e-26
2.046455e-29
1.9134325e-25
-1.7505448e-28
1.5060945e-27
7.1525934e-24
1.441477e-30
1.382164e-25
2.8115368e-32
1.8613178e-31
2.1193735e-29
1.7386066e-26
1.7946177e-29
3.4894136e-33
6.4331715e-32
7.3241587e-29
1.1743605e-33
7.660481e-35
1.0370143e-30
4.575174e-34
4.1232653e-36
1.0026143e-30
-9.5552089e-34
2.4635831e-36
1.667535e-32
-4.0243975e-30
4.7731152e-33
2.4487521e-29
-6.9610152e-33
1.4724531e-31
1.501455e-27
7.9350372e-33
1.4912587e-30
4.5770499e-34
1.8962699e-33
3.2704231e-33
3.6119579e-29
3.7299851e-32
2.3087443e-35
3.778144e-35
4.6029205e-31
2.8315693e-37
6.6021866e-38
1.2587049e-34
3.6996944e-37
3.9324031e-36
6.8286882e-34
-2.2934652e-37
3.1693673e-40
3.2256619e-36
-1.375072e-34
1.3633544e-36
4.9092683e-33
-9.2034293e-34
7.138353e-36
1.4941137e-31
9.0268512e-33
7.3506604e-31
2.0105203e-34
2.5468194e-37
4.3513318e-39
3.8996314e-33
4.2549225e-36
9.4530847e-39
2.0206624e-38
6.5093989e-35
1.4463287e-38
5.6741717e-38
2.3961516e-36
1.580807e-38
2.8174634e-38
2.9893231e-35
-4.07718e-41
4.0326652e-40
3.0285204e-38
-2.8632905e-38
1.0666283e-40
1.4196292e-36
-1.9236625e-34
8.6344303e-36
7.0137285e-34
1.7758914e-34
8.1389038e-32
1.3160087e-36
1.0541561e-40
6.4437223e-39
1.5606622e-36
1.6680386e-39
9.5176476e-41
2.0485945e-42
3.6530881e-38
2.7704479e-40
5.3008812e-41
7.1618471e-38
2.8567548e-42
8.4193762e-42
2.9908308e-38
-1.0863641e-42
1.6576088e-43
6.1180746e-40
-1.6723147e-39
1.1149921e-40
8.2344895e-39
-1.7138433e-36
1.7579453e-38
2.4393429e-35
1.3792586e-37
7.1350596e-34
1.939056e-39
1.1744547e-42
7.3098422e-38
7.1221322e-41
1.9847582e-39
1.2633163e-43
2.3887268e-40
6.4413208e-42
3.6285995e-44
4.5031699e-41
8.7597742e-43
7.4255243e-46
8.3330824e-42
1.4308933e-43
-3.6619723e-44
7.52742e-43
1.4576006e-44
-2.5675095e-41
5.7956008e-40
1.3378591e-41
-2.8299507e-40
2.0349873e-38
4.5133508e-40
1.4943472e-37
5.4696172e-43
2.4898257e-39
4.342742e-30
1.2420653e-29
5.5307229e-28
9.0454507e-31
8.4125362e-30
2.1002678e-29
4.9024498e-25
7.0267155e-24
2.2539725e-23
2.5520072e-21
5.3139485e-23
3.1984428e-22
3.4261137e-20
-2.0661813e-25
2.1968601e-26
2.8217331e-22
-3.163409e-19
2.960911e-24
5.1838298e-19
-1.6019777e-19
8.1153486e-19
1.0875969e-16
2.9758243e-21
7.3652846e-19
-1.2848461e-22
2.9068125e-23
1.5990055e-22
1.0481117e-20
1.0049392e-21
2.2471648e-28
8.7538477e-28
2.919473e-23
2.0012089e-25
0
4.1985712e-23
1.6289111e-24
1.5097802e-26
9.2879034e-22
0
7.6629357e-26
1.3293754e-23
-1.9993961e-21
5.0129526e-23
4.3154427e-21
-3.2115558e-23
2.4610524e-23
1.2871479e-18
1.9034272e-24
8.5303833e-20
1.3602322e-24
2.4106357e-26
3.9606146e-25
4.5871303e-22
1.6351416e-23
1.273799e-28
6.9136316e-28
3.9640564e-26
1.0863153e-28
0
4.9885046e-26
3.8831048e-28
2.6053408e-29
4.643188e-25
-3.115582e-26
6.8077082e-30
1.3887953e-25
-4.7138393e-26
2.8941352e-27
3.3565241e-23
-1.2870599e-24
5.3742771e-28
3.3006476e-23
2.7917937e-24
1.0307041e-21
5.7095439e-26
3.9962969e-29
0
6.1499656e-25
1.2864617e-27
1.8496308e-31
1.4409276e-30
1.9553763e-27
5.6941638e-32
6.2604355e-33
6.7854026e-29
1.5307632e-32
3.6076905e-33
2.7099505e-29
-1.2531856e-30
1.0608452e-33
8.0623663e-30
-4.3038304e-30
4.2922845e-31
2.9211555e-27
-8.2310009e-28
8.1495473e-33
2.8405233e-27
0
3.7764874e-25
1.0507693e-29
2.6010621e-31
6.1388554e-32
5.5087308e-28
1.1648402e-30
5.0747057e-34
1.2022346e-33
9.7364213e-30
8.9553297e-36
7.3039157e-39
6.889537e-33
2.1814234e-36
5.4754151e-37
4.3212289e-33
-1.7994764e-34
1.8489986e-37
1.2461009e-33
-6.7824869e-34
1.9258679e-36
4.3503388e-31
-9.0321952e-33
1.0635892e-33
7.5151177e-31
1.212983e-32
5.3840993e-29
2.5412557e-32
6.5543687e-36
3.320675e-36
6.5418556e-32
1.4371859e-34
5.5255271e-38
7.3835711e-37
1.2736303e-33
5.8612056e-39
4.6092396e-39
1.2943395e-36
5.067393e-38
6.3383841e-37
4.8026486e-35
-5.3123566e-39
1.6946176e-41
2.7162057e-37
-2.2772598e-36
2.6654272e-36
3.9398477e-34
-2.1320909e-33
7.572016e-35
4.1115772e-32
5.9044256e-34
1.3143307e-30
3.3044243e-34
1.7419953e-38
4.2451109e-36
2.4435128e-34
6.9025714e-37
1.6953482e-40
3.84423e-41
7.9050247e-37
4.1015084e-40
2.6062548e-40
8.0624859e-38
6.4756114e-40
1.2506603e-40
5.3440657e-37
-4.3917488e-40
1.7908891e-41
1.6709961e-39
-3.0302231e-38
4.2353674e-39
8.2334511e-36
-7.5086794e-36
1.3841735e-38
2.0763251e-34
6.6455585e-37
4.4318049e-33
4.7325453e-38
8.2289085e-39
6.4417175e-36
2.7071005e-38
2.4936766e-37
2.8238408e-42
6.191916e-39
1.8098133e-40
7.5336331e-43
1.2271747e-39
2.0836218e-41
3.9765835e-44
1.2934372e-40
3.0531736e-42
-8.4030143e-43
1.67131e-41
3.0773119e-43
-8.3706926e-42
3.0770293e-39
5.113962e-41
-1.5044905e-39
3.5416034e-38
6.8249601e-40
8.0492473e-37
1.2368858e-41
1.029758e-38
6.6653866e-19
1.2587058e-19
7.8399777e-17
6.9455286e-20
0
4.2619645e-20
1.5912398e-17
2.9887444e-23
6.7483021e-23
4.8529567e-21
2.7333389e-23
1.9079393e-24
3.3860303e-20
-4.7930085e-18
3.635925e-20
4.0764205e-18
-1.3391964e-17
-3.7866894e-21
1.8117216e-15
-7.5224456e-20
-5.7809092e-19
1.0152613e-16
-2.4046955e-21
2.6356588e-18
-3.3615064e-22
9.1023698e-22
0
1.051702e-19
-1.6967075e-19
1.2487412e-22
2.2855463e-24
7.5578021e-20
2.6835982e-24
6.290271e-25
1.4097933e-21
1.623817e-24
6.4024466e-24
5.3874799e-22
4.1693275e-23
0
2.3928898e-20
0
2.8878408e-26
5.7114205e-22
5.2847868e-22
0
4.4241844e-18
1.002959e-20
1.9704725e-18
3.7841991e-22
1.1034113e-25
0
5.7640339e-22
0
8.1110641e-27
6.1112413e-28
2.4440138e-24
1.7543715e-26
0
4.5549547e-24
3.2213242e-26
1.7069239e-27
1.8045068e-23
7.2578554e-28
0
9.855603e-25
-6.4570132e-26
4.1586124e-27
3.4411155e-23
-1.3632698e-23
1.9012698e-27
1.4869913e-22
5.077728e-25
3.8955218e-20
0
3.3688036e-26
8.6137833e-28
7.1408944e-24
-1.3911666e-26
6.0233232e-30
9.1322082e-28
1.0624684e-25
1.8455167e-30
0
5.7196331e-28
8.292362e-29
4.4965652e-30
6.1655624e-26
3.3849933e-32
1.5314456e-31
1.7398399e-27
-5.8510922e-30
1.6473313e-26
1.8853713e-24
-7.3348897e-28
2.2913482e-31
5.5098849e-27
1.0662382e-29
8.8064252e-25
1.017325e-28
2.0545237e-28
0
5.8982184e-26
-6.7415864e-30
2.7417764e-31
6.6872584e-31
2.6288407e-27
5.7702564e-34
8.4251909e-36
3.3008169e-31
8.9113674e-33
8.4399811e-34
4.4930656e-30
-2.8300844e-29
3.3406478e-31
2.4952041e-29
-5.1981996e-32
1.1141569e-28
1.0539559e-25
-3.7631664e-31
3.5298401e-31
3.8833033e-29
1.6382264e-29
2.4153884e-27
1.7182156e-30
2.3051451e-32
8.7422109e-33
4.786563e-29
3.1834956e-32
7.8264107e-35
2.5043499e-34
1.2668738e-30
2.0732344e-37
2.2552022e-39
8.8152272e-35
1.9460139e-36
5.2547222e-39
8.904147e-34
-3.4495049e-32
5.7983631e-35
2.4986396e-31
-2.4227748e-33
1.4302568e-32
1.0862038e-28
-7.5747907e-32
1.1438389e-33
2.1336238e-30
2.7831054e-32
8.2548197e-29
1.3050301e-32
1.5571246e-36
2.8447307e-38
8.9751541e-33
1.4752055e-35
1.5030245e-38
1.8612402e-37
2.5479791e-34
6.8626699e-40
2.2980475e-39
2.0825124e-37
6.8846156e-40
1.3287684e-39
2.0612074e-37
-6.0030117e-36
8.6138055e-39
3.8843587e-35
-2.6527529e-36
4.4981457e-36
1.4304036e-32
-6.8711244e-35
6.045605e-37
4.0602229e-33
1.0528434e-35
7.3423559e-32
1.2833234e-36
2.1518377e-39
3.3607589e-36
1.1484597e-38
1.2672293e-37
3.1373751e-41
1.9051032e-37
1.9007407e-39
2.0453635e-41
1.2510698e-38
2.6189689e-40
2.5154247e-43
2.8503437e-40
5.1601838e-42
-2.231714e-39
1.0611583e-38
2.4838011e-40
-7.8250895e-40
4.4441652e-36
5.5855659e-38
-8.105151e-39
6.409753e-37
8.6437613e-39
1.1242378e-35
2.6975393e-40
1.2017051e-37
0
-1.2987286e-19
3.3762459e-16
1.1883767e-16
0
4.9709047e-19
6.7257301e-17
0
1.2332276e-22
3.5204217e-21
1.8873924e-19
4.0506329e-20
3.3785473e-17
-9.4893538e-18
-4.1694292e-23
1.3742147e-17
-3.3791138e-17
9.0515209e-17
2.4776724e-15
-4.3159858e-18
-1.4887203e-18
3.5591474e-17
-8.2950589e-19
1.0569076e-16
0
1.8760618e-21
4.2608877e-27
5.9627663e-21
-3.233435e-20
1.7239632e-20
0
7.688679e-19
1.0707304e-22
3.3900202e-22
2.0899093e-20
1.0831245e-22
0
4.4357007e-20
0
0
1.2050302e-20
1.0471275e-18
0
1.9782503e-16
1.0119107e-20
0
6.5341225e-17
0
8.0320344e-18
0
2.2303581e-23
3.1531847e-23
6.9225074e-22
-1.0546907e-23
6.6306548e-25
3.4286481e-26
4.0874762e-23
1.9758763e-24
2.0243216e-26
3.8938796e-22
5.3239342e-26
5.4787576e-27
3.388041e-23
0
-1.0348327e-27
3.2482872e-24
3.2417094e-21
8.975195e-23
1.1971345e-18
3.6131759e-23
4.3639275e-24
1.0757563e-19
5.908211e-24
2.9186563e-19
0
4.5916989e-24
2.5120704e-24
1.6702626e-22
-1.3231003e-25
1.5451038e-27
3.4766048e-26
8.1218017e-24
9.4115717e-29
3.2660821e-31
2.2318176e-26
4.6668072e-27
1.7241398e-28
1.2447892e-24
8.8200281e-29
-4.7960943e-32
7.6094082e-26
1.4095327e-25
8.7868339e-28
9.1585259e-23
6.2528036e-27
7.2502928e-28
4.5042506e-24
3.6127721e-28
6.8732735e-24
1.6983688e-27
1.3368909e-25
1.3163185e-26
1.0386333e-23
-7.4241082e-26
4.6321055e-29
2.0995798e-28
3.5125772e-25
2.8751772e-31
4.6590343e-31
7.5943565e-29
3.3859958e-30
1.2497418e-31
1.4900281e-27
5.8707071e-32
0
7.9693071e-29
1.3543849e-28
1.5126925e-27
1.3957824e-25
4.9325848e-31
3.7866318e-31
9.3619426e-28
5.3650869e-28
7.769703e-26
8.4091127e-29
5.2498048e-29
1.4930965e-29
7.3970864e-26
-1.2509703e-27
2.2333866e-32
1.0730636e-31
6.2217411e-28
4.19714e-34
1.2068059e-34
6.1109955e-31
2.3783143e-34
2.7769891e-35
1.2606336e-31
2.6172982e-34
0
1.2372936e-31
4.410086e-31
1.4849222e-31
1.2961349e-27
1.3031251e-32
3.0483051e-31
3.7114389e-29
8.9494511e-31
2.6234904e-27
1.3510706e-31
2.1698379e-33
1.1706168e-32
1.766117e-29
-2.697844e-30
6.5097743e-36
4.5471437e-35
1.0973087e-31
8.6816063e-38
3.3727692e-38
1.2688451e-34
4.6438575e-38
7.860518e-39
2.8019693e-35
1.5815294e-38
0
2.2437035e-35
-1.6551123e-35
4.4861111e-35
1.6116447e-31
1.200904e-34
5.3341235e-35
2.3873119e-31
2.5737498e-34
2.2930451e-30
1.3117507e-35
1.1141433e-36
1.0383367e-32
-2.3638083e-33
3.6905415e-33
2.809399e-39
4.599293e-35
1.2188177e-36
3.6749287e-41
5.4932147e-38
9.3877349e-40
1.2211512e-41
8.1981589e-39
9.2416444e-41
1.656103e-42
8.8715977e-39
1.2341347e-40
-1.1622731e-38
4.8224698e-35
1.0861015e-36
1.1103886e-38
5.2654903e-35
6.3647257e-37
2.6674699e-34
4.4911827e-39
3.339363e-36
0
0
1.0674936e-15
1.111374e-16
7.276119e-19
-7.0319159e-20
6.3985222e-17
7.295933e-19
1.7997887e-23
1.4628979e-21
2.01924e-17
-1.6900367e-19
1.7199824e-16
-2.4290712e-16
-5.7580929e-20
1.3471637e-14
-3.2638482e-17
-1.0626066e-18
2.2795536e-15
-2.4014782e-18
-1.7019993e-18
5.2411447e-19
-5.7255789e-20
1.1367293e-16
1.8809428e-18
3.7334152e-21
-2.0448336e-21
8.7124664e-17
-8.7119899e-17
8.2840837e-21
0
6.0462308e-19
4.9921558e-21
1.1767482e-22
7.1608297e-21
4.9841601e-20
-2.7558509e-23
6.0760978e-18
0
-3.35159e-26
4.3109199e-21
1.4175083e-18
0
6.4716549e-16
-1.1656084e-19
1.822906e-20
1.2043012e-16
0
1.0179888e-17
-1.087407e-21
9.9703058e-25
1.2245009e-23
1.3430634e-19
-1.356427e-19
1.5403758e-24
1.9231742e-25
4.6290922e-23
1.4552518e-23
1.141287e-24
1.143389e-21
1.2468946e-27
3.4554186e-29
2.0789419e-23
0
-2.102056e-28
3.0836834e-24
5.4329217e-21
0
1.5032688e-18
-2.2554477e-22
0
2.2117987e-20
1.2358347e-23
8.3699274e-19
-4.0912536e-22
6.6730931e-25
9.9015689e-25
3.7019053e-22
-1.649924e-22
4.4259677e-25
1.9682172e-25
3.6607259e-23
2.1604375e-26
0
8.9276244e-24
4.184595e-27
1.337561e-26
2.2257891e-24
0
-1.0915874e-29
2.8149976e-26
6.6666924e-25
0
2.8803008e-22
-3.2707876e-27
0
8.6382545e-24
3.7248517e-27
2.0350195e-23
-1.5645542e-26
6.6634933e-25
1.3095757e-24
3.5914084e-23
-1.1397213e-25
1.7131787e-27
3.1093967e-27
3.0301149e-24
1.3098239e-29
0
2.755403e-27
2.6539279e-28
7.0619356e-30
5.4062889e-26
1.6357632e-30
-9.5365695e-33
8.2319541e-28
3.4715091e-28
0
1.9177477e-25
-2.1390629e-29
6.9906243e-31
3.2939125e-26
6.6735183e-27
1.1679371e-24
-1.9089848e-28
3.5335179e-26
7.7225286e-27
2.9745429e-24
-6.5569354e-26
3.700858e-30
5.4199563e-30
4.621848e-26
1.4957154e-32
7.290834e-34
3.2236448e-30
2.2778687e-31
7.0162782e-33
7.9571983e-29
2.2843214e-33
-6.8580891e-36
1.4646723e-30
1.5264465e-30
0
6.7572601e-28
2.8278236e-32
5.3646642e-33
2.8261319e-28
5.2077119e-30
2.9013026e-26
1.9477994e-33
2.4947937e-30
0
1.6885653e-26
-2.8044297e-27
7.0586275e-34
2.921468e-33
7.9910041e-30
5.9296215e-36
5.5019143e-37
1.5557049e-33
1.6563612e-35
1.636759e-36
7.0349782e-33
3.3780883e-36
0
1.8748683e-33
2.8502497e-34
0
1.4684431e-31
1.4513058e-34
0
3.0399605e-31
2.1620516e-33
2.6124758e-29
6.9723723e-35
1.8746509e-33
1.4657399e-29
-2.1319105e-29
5.5080558e-31
4.3544834e-37
4.7221997e-33
1.1944866e-34
3.3136879e-39
1.0466432e-36
2.1188447e-38
3.2766326e-39
1.6351652e-36
1.519957e-38
2.8231592e-40
2.2722592e-37
1.3213587e-39
1.1735422e-37
6.1853846e-35
1.0133177e-36
9.2757232e-37
2.0992897e-33
2.114666e-35
2.4083634e-33
3.7391746e-38
2.7888645e-35
-5.5778321e-17
-6.4697966e-16
2.5769991e-15
1.1668697e-15
5.9187292e-21
-2.1010842e-19
1.1985086e-18
7.3636146e-21
-9.3889867e-24
2.1697789e-23
-1.8505234e-16
6.1916062e-18
1.9200422e-16
-1.5863449e-15
2.6544106e-15
2.1762618e-14
-5.6495102e-18
-3.0443682e-16
1.5299647e-15
-9.469756e-19
-4.2109177e-18
1.4807218e-20
-4.4134687e-19
2.3113012e-17
0
8.4597513e-18
3.7104472e-18
2.2750078e-15
-6.3920786e-16
1.1622243e-19
0
2.7147197e-17
1.2153253e-19
1.0298345e-24
1.8365658e-21
1.0834312e-18
0
4.8775943e-17
2.422957e-17
1.3350589e-18
3.2957008e-15
-5.9810859e-18
-1.503392e-18
1.2946741e-15
-1.0584205e-18
-3.6212498e-20
8.8662909e-17
-7.6056669e-20
9.9948308e-18
-1.608373e-19
1.2932305e-21
4.5627381e-20
1.1034325e-16
-1.0654503e-16
1.1612648e-23
-2.4442261e-24
1.3352127e-21
6.3067356e-23
4.1781017e-24
5.0144075e-22
7.674599e-22
1.7521517e-22
5.6892412e-19
5.7573704e-21
9.9427347e-22
1.3290777e-18
6.6607716e-24
-3.1584961e-23
5.4908809e-21
-1.4197753e-20
-1.0513902e-24
1.0870436e-22
-2.188434e-23
8.7317755e-19
-3.6475857e-22
8.3599143e-28
8.779823e-23
3.4993507e-19
-3.0399701e-19
1.2612402e-24
9.9746539e-25
1.1847034e-22
6.814717e-26
2.0742497e-26
3.2997603e-23
2.9809882e-26
1.2627771e-28
1.7747616e-22
1.4511438e-24
1.118489e-25
9.9381752e-22
1.1407654e-24
6.7512327e-25
4.2056292e-22
-5.2711746e-27
-8.1589365e-28
6.5857472e-24
6.0983077e-28
6.2209451e-25
-9.5676498e-25
6.6610108e-23
1.6981424e-22
4.4447152e-21
-2.3937021e-27
9.3858212e-26
2.8675152e-24
2.1508159e-22
3.9299352e-28
1.1141016e-27
8.0245697e-25
2.2040727e-28
7.384925e-28
9.1447032e-26
3.048719e-28
4.0286003e-29
1.1255122e-25
2.5015605e-27
0
1.0160914e-24
-4.0012053e-26
9.8635539e-30
2.7018462e-25
5.5498823e-26
1.3977658e-23
-2.6017704e-26
1.8558137e-23
7.1100637e-24
6.994759e-22
-1.7960817e-24
1.8935244e-26
2.0560452e-25
4.4115142e-23
3.8225328e-30
5.1788145e-29
3.4947992e-26
1.853509e-31
8.6178004e-32
1.311918e-27
1.0564495e-31
1.5542084e-32
4.1818502e-29
2.4461509e-30
0
2.9384682e-28
-9.5205646e-28
1.061889e-31
2.8875119e-27
1.0389809e-28
3.1022817e-25
-1.4069344e-29
2.5494932e-25
5.2524165e-27
1.0459768e-23
-1.8451864e-25
2.0354881e-28
1.2947558e-28
6.3524074e-25
6.2810319e-33
1.1391155e-31
4.6052046e-28
1.0241062e-34
3.1033143e-34
2.2042524e-30
4.0109707e-35
3.3585622e-37
1.7615704e-32
8.8581509e-34
0
9.5687002e-32
-1.482895e-31
1.3597607e-33
1.4120026e-29
4.6342008e-33
1.2022954e-28
-1.4375098e-33
2.1940019e-30
5.0819625e-27
-1.6097116e-27
2.3342228e-28
1.7571639e-32
1.2907037e-28
2.4910135e-30
1.1024006e-34
2.1118121e-31
2.8618652e-33
1.0329219e-37
4.2209447e-34
4.5582455e-36
5.7801236e-37
1.2421466e-34
3.0034282e-36
5.3472603e-37
1.0950982e-34
1.5041914e-36
2.0203225e-35
2.1791639e-31
1.7527573e-33
6.9872622e-33
-7.5925383e-38
9.3850099e-35
-3.0235019e-17
3.3380184e-18
1.3241821e-15
0
-2.2900724e-25
0
1.1299636e-16
7.323547e-25
-1.0705412e-24
1.6103342e-23
1.3187425e-17
1.2653621e-18
3.6109609e-17
-1.1447663e-15
5.2526895e-15
2.1674233e-14
-2.0933302e-19
-3.8354607e-16
1.9476409e-15
-3.1220289e-22
-1.3392143e-18
1.1319039e-18
-2.2571235e-19
2.3330698e-17
-7.0940204e-23
0
-9.292426e-17
2.7302102e-15
0
-8.8322637e-23
0
2.7903728e-17
1.6946955e-21
-2.0469523e-24
4.9033085e-23
4.4531786e-18
1.3455791e-18
4.8658102e-17
-1.1492375e-16
0
3.8077652e-14
-1.6311296e-17
-7.021396e-21
1.1579605e-15
-3.6900484e-19
-5.5898061e-19
1.8707014e-17
-2.1797916e-19
6.260494e-18
-1.0106029e-20
1.360902e-19
1.3614768e-16
1.9559171e-15
-1.788473e-15
1.768357e-21
-3.3487259e-24
1.3566225e-19
2.1874726e-21
-3.3736046e-24
8.0058752e-23
1.0442966e-20
0
2.379915e-17
-6.0342301e-25
5.448731e-19
7.4682978e-16
-2.5838438e-21
-1.4578285e-22
9.049266e-22
-1.7780583e-20
-7.0212152e-24
3.800038e-19
-2.6418615e-23
4.9658596e-19
-1.0501142e-21
1.0107885e-20
3.381868e-19
9.1657306e-17
0
0
-3.0732799e-24
1.0314016e-20
6.0352991e-25
-1.3583495e-27
4.8390064e-22
-2.3427742e-23
2.0870673e-23
1.5485731e-19
9.0088201e-23
5.3042724e-22
5.454112e-19
-2.7946225e-27
-1.0618675e-24
2.8553771e-21
-1.2235104e-26
-1.4269688e-25
9.7642829e-25
-7.5019951e-24
6.6192334e-25
-1.7703396e-23
3.191368e-21
0
4.05822e-19
0
7.9107774e-26
-1.4575164e-24
4.5370991e-21
-2.5608262e-27
7.5366341e-28
6.9811654e-25
-4.4434235e-26
3.3917935e-27
2.100481e-23
1.7547089e-25
5.6881749e-26
5.2939398e-22
1.1845554e-26
-5.5322536e-28
1.2709425e-23
-2.9549294e-24
-3.060376e-27
6.7940125e-24
-1.0263813e-25
4.0986056e-22
-1.6636389e-25
2.9126241e-23
0
2.2478436e-21
0
5.9394332e-26
3.0018033e-26
1.5449718e-22
-2.7835715e-30
1.7741142e-27
1.4774209e-25
-3.7928356e-29
1.8139426e-33
4.7451275e-27
1.6921038e-28
4.4950315e-29
5.6678738e-26
2.235916e-29
0
6.2382964e-27
-1.9864932e-27
-9.9114421e-30
2.7201471e-26
-5.8240028e-29
1.9937347e-25
-1.3494713e-28
2.3769226e-25
5.1204284e-27
1.7987022e-23
-8.0723994e-26
6.7121977e-28
5.8712301e-29
1.506705e-24
-1.2819245e-32
1.0879961e-29
5.0832216e-27
-1.4578305e-32
7.1589211e-32
6.8183109e-30
1.4969133e-31
2.2765542e-32
4.5034457e-29
6.1702902e-32
0
1.3477252e-29
-2.8485138e-31
-1.3568555e-32
1.1310133e-28
-5.7803602e-33
3.7313965e-29
-2.3702403e-31
4.196405e-28
1.0375904e-25
-2.6689921e-27
5.4542776e-27
1.0371602e-31
5.5724426e-28
1.3740055e-29
-1.8545448e-33
1.4066371e-29
3.2742193e-31
-1.8494632e-35
4.4261122e-31
1.2217957e-32
1.9495181e-35
2.2330029e-32
6.5535816e-34
1.7554028e-35
3.48896e-33
2.8334885e-35
-5.6848818e-35
9.2637606e-31
2.7008958e-33
1.4001326e-32
-1.7331324e-35
-5.8143891e-37
2.3266222e-16
-2.5861406e-17
0
-9.7872171e-16
3.5539254e-21
3.5025269e-17
3.0513981e-16
1.5396984e-21
-2.9733803e-27
2.0246297e-21
3.6028089e-17
-1.5811166e-21
8.1254891e-20
-1.6063009e-15
1.2516201e-14
1.4802531e-14
-6.0767272e-16
-4.5964942e-16
2.4667251e-15
4.0550781e-18
-3.5446116e-17
3.8549899e-15
-5.5430677e-18
1.0745858e-14
2.6020101e-16
8.5878186e-18
2.0443671e-17
2.9732279e-15
-2.7402967e-15
-3.8287879e-22
2.7363885e-18
4.3276818e-17
9.9680109e-25
-3.856801e-22
4.6501355e-23
4.846326e-17
8.193605e-20
1.1132302e-19
-3.1744075e-16
8.5146333e-15
4.6426795e-14
1.6708323e-17
-7.7981943e-17
1.2304637e-15
1.3292949e-20
-3.2196376e-19
1.0149569e-19
-8.2794413e-21
6.129601e-19
8.6211583e-22
-2.8604455e-18
0
1.6126158e-15
-2.38324e-16
-2.7887543e-22
3.4737826e-22
1.1861024e-20
0
-4.854992e-22
1.1354422e-20
2.1019157e-19
6.5497177e-19
2.4422158e-17
3.9012009e-17
2.4092667e-16
2.5564951e-14
0
-1.5460391e-19
3.1425713e-16
0
-4.8111392e-23
2.5100318e-18
-1.1127186e-22
2.7061428e-19
8.7193601e-22
0
0
3.788537e-17
0
-1.5226612e-22
3.2875817e-22
6.2478246e-21
-9.4645266e-21
-2.8891125e-23
2.8768314e-20
-6.0248941e-20
1.8487572e-20
4.0641665e-18
3.0144236e-19
2.4610026e-19
2.408654e-16
1.5874049e-23
-5.3843126e-23
1.4973334e-19
0
-3.1183627e-23
1.1769517e-24
-2.5247577e-22
1.1685445e-21
1.0121455e-23
0
0
3.4870097e-19
-2.0710134e-22
-7.6212304e-24
1.9135249e-22
8.9676374e-21
-3.2070455e-24
-4.4891002e-26
1.2194929e-21
-2.7155291e-22
3.1596262e-24
1.8773916e-20
3.0213808e-22
2.7752406e-22
2.459589e-19
4.025486e-24
-1.3226472e-25
7.4009146e-22
3.7826105e-25
-4.0359768e-26
5.5075534e-22
-3.3927507e-24
4.1693479e-21
1.4759403e-23
-6.9459451e-24
0
7.6848667e-21
-3.3029502e-22
-3.2753125e-26
4.7992805e-25
5.898022e-22