/*--------------------------------*- C++ -*----------------------------------*\
  =========                 |
  \\      /  F ield         | OpenFOAM: The Open Source CFD Toolbox
   \\    /   O peration     | Website:  https://openfoam.org
    \\  /    A nd           | Version:  13
     \\/     M anipulation  |
\*---------------------------------------------------------------------------*/
FoamFile
{
    format      ascii;
    class       volScalarField;
    location    "0.07";
    object      alpha.water;
}
// * * * * * * * * * * * * * * * * * * * * * * * * * * * * * * * * * * * * * //

dimensions      [];

internalField   nonuniform List<scalar> 
51200
(
0
0
0
0
0
0
0
0
0
0
0
0
0
0
0
0
0
0
0
0
0
0
0
0
0
0
0
0
0
0
0
0
0
0
0
0
0
0
0
0
0
0
0
0
0
0
0
0
0
0
0
0
0
0
0
0
0
0
0
0
0
0
0
0
0
0
0
0
0
0
0
0
0
0
0
0
0
0
0
0
0
0
0
0
0
0
0
0
0
0
0
0
0
0
0
0
0
0
0
0
0
0
0
0
0
0
0
0
0
0
0
0
0
0
0
0
0
0
0
0
0
0
0
0
0
0
0
0
0
0
0
0
0
0
0
0
0
0
0
0
0
0
0
0
0
0
0
0
0
0
0
0
0
0
0
0
0
0
0
0
0
0
0
0
0
0
0
0
0
0
0
0
0
0
0
0
0
0
0
0
0
0
0
0
0
0
0
0
0
0
0
0
0
0
0
0
0
0
0
0
0
0
0
0
0
0
0
0
0
0
0
0
0
0
0
0
0
0
0
0
0
0
0
0
0
0
0
0
0
0
0
0
0
0
0
0
0
0
0
0
0
0
0
0
0
0
0
0
0
0
0
0
0
0
0
0
0
0
0
0
0
0
0
0
0
0
0
0
0
0
0
0
0
0
0
0
0
0
0
0
0
0
0
0
0
0
0
0
0
0
0
0
0
0
0
0
0
0
0
0
0
0
0
0
0
0
0
0
0
0
0
0
0
0
0
0
0
0
0
0
0
0
0
0
0
0
0
0
0
0
0
0
0
0
0
0
0
0
0
0
0
0
0
0
0
0
0
0
0
0
0
0
0
0
0
0
0
0
0
0
0
0
0
0
0
0
0
0
0
0
0
0
0
0
0
0
0
0
0
0
0
0
0
0
0
0
0
0
0
0
0
0
0
0
0
0
0
0
0
0
0
0
0
0
0
0
0
0
0
0
0
0
0
0
0
0
0
0
0
0
0
0
0
0
0
0
0
0
0
0
0
0
0
0
0
0
0
0
0
0
0
0
0
0
0
0
0
0
0
0
0
0
0
0
0
0
0
0
0
0
0
0
0
0
0
0
0
0
0
0
0
0
0
0
0
0
0
0
0
0
0
0
0
0
0
0
0
0
0
0
0
0
0
0
0
0
0
0
0
0
0
0
0
0
0
0
0
0
0
0
0
0
2.4654698e-27
6.5349768e-49
1.1649422e-65
1.863035e-81
2.3774107e-60
1.8073442e-47
3.5677108e-40
3.0641305e-28
1.445521e-33
3.9887784e-53
4.0594221e-46
9.2868043e-63
1.0670637e-48
2.0920544e-43
1.9748799e-44
6.7495298e-28
8.1989348e-58
9.168316e-46
9.8258819e-50
1.0941936e-57
1.9264761e-43
2.3519664e-45
2.2193652e-37
1.8812882e-29
9.7378743e-57
1.0494456e-31
1.6011121e-32
6.3820401e-35
1.8485895e-44
6.7758999e-43
1.2056794e-35
7.8460439e-33
1.3806631e-56
1.3668702e-32
1.1955433e-33
2.8756314e-35
8.5863268e-40
1.6681114e-40
1.0719649e-37
4.3560599e-45
3.5297544e-50
2.3232665e-34
1.0303467e-35
1.3036952e-36
2.4523738e-40
3.7016945e-42
5.4241986e-44
7.4641242e-49
2.2190345e-55
2.9771201e-37
2.4067757e-39
3.2027703e-39
2.4534247e-41
2.7404647e-45
9.7057667e-50
7.3790966e-51
1.0674603e-54
1.7350356e-44
6.0708399e-58
1.4838417e-58
1.7857275e-43
-2.9084671e-64
-1.1787911e-63
2.3233838e-51
8.754291e-18
1.9615894e-17
1.8489371e-14
5.3728854e-13
1.5060612e-14
1.3158441e-41
1.3147103e-41
8.2534074e-37
1.2509533e-32
1.3234605e-19
9.9031502e-17
2.2439444e-15
6.5743422e-17
1.3147102e-41
3.4582366e-40
1.2364869e-35
1.8041401e-17
1.378341e-19
4.6839862e-26
1.2929896e-25
6.204316e-29
1.1256956e-40
1.7773389e-36
2.5071062e-36
9.4995559e-19
1.1075958e-20
3.9787527e-27
6.4316959e-26
6.9048771e-28
1.5296371e-28
6.6334543e-32
2.069903e-23
1.9718334e-21
4.9985265e-23
7.0551769e-27
4.6372941e-35
3.4098308e-31
3.4824155e-29
2.3039515e-25
1.5739847e-23
1.4593941e-27
8.1233934e-29
4.0111017e-28
2.560482e-31
8.9813147e-38
5.6042025e-30
2.221721e-26
1.6825368e-24
2.3821159e-34
1.3592182e-33
7.9296761e-31
6.9196154e-33
1.4861205e-38
4.3856663e-31
2.2002213e-28
1.3516711e-26
9.0902494e-40
5.6897221e-40
6.1882029e-42
2.5248538e-37
4.0858925e-35
1.6638299e-32
2.1853234e-34
7.8512011e-33
3.8927556e-18
1.887541e-15
7.719944e-13
4.6036789e-11
6.3585046e-13
4.5185272e-10
9.2511128e-08
1.7431649e-09
3.5615262e-14
1.8376164e-16
3.8355429e-15
1.4032766e-13
2.3249756e-15
3.2373895e-12
1.8389318e-10
1.2000773e-12
6.2980878e-16
9.4837321e-19
4.4378917e-19
5.6588012e-22
9.2688075e-24
5.6606718e-23
8.2851013e-23
4.8315489e-22
9.1648596e-18
3.0791605e-20
2.7018199e-22
2.4937597e-25
3.8192594e-27
1.0906604e-23
1.198158e-22
2.0785844e-23
1.5106306e-20
1.5446655e-22
1.12154e-27
1.5835678e-25
9.3263132e-30
4.3462953e-29
6.1596185e-25
2.9714674e-22
8.5238305e-28
1.4080388e-29
1.0136518e-27
8.1347304e-27
8.1266912e-30
2.129771e-30
1.718859e-25
2.833793e-23
1.2276426e-28
3.0279923e-32
2.4685211e-29
4.3233211e-30
1.3843524e-31
1.6062029e-30
5.7505864e-27
2.2535245e-25
1.8990128e-29
4.6663319e-32
2.8510474e-33
4.004926e-36
1.2193588e-34
1.313256e-31
3.4760722e-30
1.1902206e-31
3.8927906e-18
3.8927556e-18
5.3580399e-12
8.7603749e-11
6.2899196e-15
6.6428939e-15
4.0513319e-07
3.4264984e-09
1.2609949e-11
4.48505e-18
2.7371381e-14
1.0342669e-12
6.2764395e-15
5.13257e-12
1.1764183e-09
2.4975739e-12
4.7989779e-13
2.0137857e-17
1.896999e-17
1.5019654e-16
5.9264032e-17
2.5581499e-14
6.3019831e-18
6.9415439e-13
3.12808e-16
6.9840307e-19
2.0315373e-20
2.1283205e-24
1.5310777e-23
2.1230024e-22
6.7165136e-21
2.6121888e-16
2.0856272e-19
2.8093095e-21
2.1260074e-27
1.6992337e-26
1.1409352e-28
1.0584273e-25
7.0326856e-23
1.0287638e-20
1.0075571e-25
2.0082774e-28
2.1339731e-28
1.55453e-26
6.3976804e-31
6.3520839e-26
1.0248342e-23
4.5257111e-22
8.9187479e-26
8.7770279e-31
2.8187752e-29
1.9905495e-28
3.4803127e-31
2.132908e-27
4.8680755e-26
1.3987636e-24
3.4203074e-27
1.299794e-30
2.3128398e-31
4.3632503e-34
3.8487145e-33
2.5250448e-31
1.8544356e-31
1.30405e-30
2.3090353e-07
1.03815e-08
1.6538416e-11
5.5689988e-13
9.0006825e-09
2.9497814e-06
4.4317566e-07
2.4877087e-09
2.5340066e-10
5.747703e-11
8.7957824e-13
5.5684184e-13
2.6706138e-11
2.9399393e-16
3.2395858e-09
2.4866118e-09
7.2621337e-13
2.5482178e-17
1.7706019e-15
7.7807037e-15
1.0548674e-16
1.9879472e-16
4.0096078e-14
2.870036e-11
3.8625072e-15
3.7892517e-17
1.3499749e-19
1.7085314e-17
4.6144322e-19
5.5655165e-16
1.5304045e-20
1.7799255e-18
2.3975928e-17
7.6367409e-19
4.9813714e-23
3.7540612e-25
6.7537537e-21
3.8500289e-17
1.4771726e-20
9.5625996e-19
1.3707471e-20
2.3734887e-22
2.2373247e-28
2.6170657e-28
1.0203082e-22
2.1210384e-20
5.482523e-22
2.8409898e-20
3.0104568e-27
8.0612076e-28
5.4092262e-29
4.8123455e-29
2.7654937e-27
1.697382e-27
8.7786508e-25
2.0529142e-23
5.8427256e-28
1.3640284e-30
3.2954895e-30
5.3650682e-32
3.9665867e-33
1.0126801e-30
8.0860204e-31
1.7471452e-29
1.3151836e-06
2.8924109e-07
9.5198162e-12
4.7185661e-08
1.3276823e-11
8.0227983e-06
2.6371574e-07
7.6204333e-07
6.4504428e-13
1.1429381e-09
2.5575554e-11
9.3280776e-12
1.3277069e-11
1.3506752e-07
4.7324422e-08
1.3792688e-08
8.9178987e-13
1.2221514e-14
1.6871431e-13
2.4432414e-14
2.3309402e-15
6.3708566e-10
1.000524e-10
2.4192993e-10
1.7429648e-13
3.2168892e-15
2.7476003e-20
4.7229423e-16
4.2168759e-17
4.7724671e-17
5.5812287e-19
3.3399892e-17
5.1621019e-15
1.0880918e-16
1.4999433e-20
3.2969223e-19
2.2503367e-20
5.4587186e-17
1.0735031e-20
3.2608537e-17
2.5114784e-17
1.4587634e-19
1.7064567e-22
1.070106e-26
5.0232498e-23
5.6191932e-19
1.0086254e-20
9.4485458e-19
1.1377373e-23
1.9147762e-26
3.1683948e-28
3.0734312e-30
4.4015272e-27
2.9551089e-25
8.8229013e-23
6.5258185e-22
1.2649339e-27
1.7374437e-28
2.3008947e-30
2.7774917e-32
1.3850531e-30
3.4446521e-30
2.8579676e-29
6.7955416e-28
2.6163282e-06
2.8211839e-07
6.4447148e-14
4.1378168e-07
1.4081163e-05
8.1766959e-06
2.2959928e-09
8.2982546e-07
5.0075381e-13
5.1399236e-10
1.3770838e-11
3.3237284e-09
9.4829546e-18
4.899202e-07
1.8228887e-07
2.2911543e-08
1.5759863e-14
3.9691328e-14
8.9851273e-13
9.4829546e-18
7.3150603e-18
1.1469917e-09
2.108201e-11
9.9865154e-10
1.5067798e-14
1.6095541e-14
3.0567817e-15
8.964582e-16
2.8894651e-18
8.9242771e-14
5.7481719e-15
4.582511e-16
1.5112699e-14
9.455161e-16
4.8317108e-19
1.8002022e-17
2.0644629e-19
6.9278931e-17
1.0045924e-17
5.1071609e-16
1.0466864e-15
1.1693595e-17
1.9850158e-22
1.6002082e-20
3.3834192e-22
3.9138209e-19
7.8471155e-20
1.0614369e-17
4.9136472e-18
2.123893e-23
3.78585e-28
5.8593965e-28
3.8383552e-25
3.0882504e-23
1.0655905e-22
7.9763619e-21
1.3522996e-21
4.5167418e-28
2.1192864e-29
1.2744119e-30
2.5093717e-29
8.3684159e-27
4.3025785e-25
3.2578005e-27
1.4559847e-05
8.6004351e-10
5.4864879e-14
6.0938269e-07
5.4040783e-05
5.1623486e-06
4.8169714e-11
1.7034944e-07
3.8768768e-06
3.824402e-08
5.7278123e-14
5.1536682e-08
1.0697225e-06
1.5495261e-06
1.5981039e-07
2.4345504e-08
3.5305895e-13
4.1843211e-14
4.2738291e-13
4.1944359e-11
1.1828597e-17
4.9265347e-14
4.6431625e-15
1.255109e-09
1.5759693e-14
6.013171e-14
1.164764e-14
1.6793311e-17
1.632714e-16
2.1176518e-13
4.6403523e-15
5.7827823e-16
1.757349e-12
6.4305969e-14
3.9658034e-16
3.0223455e-17
5.3689571e-21
2.9805228e-16
8.4741432e-17
6.0594303e-15
2.8558475e-13
1.2844744e-14
7.9904646e-18
3.1946194e-19
2.4041885e-24
1.1632453e-19
7.8171978e-19
2.1348138e-16
4.3569297e-15
1.7440601e-16
8.4535382e-20
4.7344278e-22
2.9484182e-26
2.7972241e-23
3.4059741e-21
6.6223568e-20
1.7381819e-19
3.2593052e-22
2.0129614e-23
1.0871274e-27
2.7926721e-26
2.5491322e-26
4.8279955e-23
1.4366849e-26
1.8745564e-05
2.3750937e-07
5.4864879e-14
1.1766935e-07
5.696691e-05
5.6976049e-06
4.5155005e-11
4.1709131e-11
6.0830606e-06
4.0288628e-08
5.4864879e-14
5.5806766e-08
2.4271395e-05
1.3914779e-06
3.0544214e-08
1.4334737e-08
2.9763996e-06
5.4243899e-14
5.7278123e-14
1.4424035e-08
1.673966e-08
1.2020502e-13
1.7831204e-10
9.4065325e-10
9.5775143e-08
6.1513243e-14
1.4880415e-13
2.5364829e-11
7.305284e-15
1.5716562e-12
6.6366901e-16
6.4329825e-16
2.9923473e-10
1.649089e-12
2.4466934e-16
5.8234025e-19
9.8431097e-17
3.3275115e-15
2.0036019e-15
1.7628986e-13
8.6070294e-13
4.8777534e-14
3.5241105e-17
1.416153e-21
4.7008625e-21
1.4269286e-18
1.3647503e-17
1.3767128e-16
7.503518e-15
4.9063055e-16
2.0112766e-18
1.2376227e-21
1.2227414e-23
2.658668e-21
2.8429961e-20
2.3552653e-20
2.9718215e-17
1.5644359e-19
4.9959314e-21
1.5794398e-22
2.971231e-26
4.6446161e-25
3.8656429e-22
5.1796813e-24
9.3996654e-06
1.3386217e-06
5.4864879e-14
3.50135e-12
5.6976509e-05
8.2964228e-06
8.2025092e-06
1.7627137e-05
9.3069662e-06
6.5197512e-08
5.5897675e-14
5.6928753e-14
5.6978944e-05
1.4411455e-06
4.308811e-11
3.3322317e-11
2.7340001e-06
1.0938796e-12
8.8752576e-12
1.8459786e-08
8.8889025e-06
1.1920156e-07
1.7152369e-09
3.4968127e-11
6.1286589e-08
5.33519e-12
1.066553e-11
1.2220529e-09
4.8568013e-13
7.5106283e-16
6.8404073e-16
7.0493029e-13
2.950061e-10
4.0806739e-12
3.0367598e-13
3.5057401e-17
7.3043857e-15
1.9778121e-13
1.587771e-13
2.9060622e-12
3.9619551e-12
2.0501854e-13
1.0060426e-15
1.425502e-20
5.8593765e-18
4.0172312e-16
2.5383407e-19
5.0356906e-16
3.0096453e-14
9.6259593e-16
1.6914471e-19
9.1201834e-24
1.4367023e-20
1.6640536e-18
2.5302365e-19
6.5260355e-23
1.3667488e-16
1.4480734e-19
2.3618748e-23
2.5494081e-26
4.0716945e-24
3.1849068e-19
1.0270825e-18
6.6660861e-23
2.8436331e-06
1.1298046e-06
5.651132e-14
6.6205346e-07
5.6980776e-05
8.2059626e-06
1.6002011e-05
6.3761292e-05
3.9526939e-06
3.9204489e-08
5.6927054e-14
3.5730468e-13
5.6979427e-05
1.8170237e-06
1.0089703e-10
4.2331103e-06
1.1310704e-06
1.036263e-12
7.4002914e-12
6.5789972e-13
4.8392925e-05
1.2697018e-06
2.5255173e-09
1.5825278e-12
8.4626475e-09
3.1025767e-12
2.7689667e-11
1.385356e-08
3.0360556e-06
8.4483492e-08
8.6206842e-16
3.5365512e-13
7.8802429e-14
6.3674612e-12
1.508229e-11
2.1861857e-10
3.6393789e-13
4.0947271e-14
1.2211926e-11
3.6099143e-12
6.3020132e-12
4.3985624e-13
1.7281964e-13
3.5057243e-17
6.2643239e-15
4.0170789e-14
9.9030238e-19
4.3845535e-13
5.0385419e-14
2.5544271e-15
1.2423334e-13
5.7906265e-13
5.79995e-17
4.3434507e-13
2.7664532e-14
3.5833865e-15
3.2967192e-16
6.9147177e-18
6.1419848e-15
1.1262786e-13
4.7449724e-15
3.9371719e-16
2.5486833e-21
4.7997495e-19
1.9516252e-06
3.2328687e-07
2.4516733e-10
1.3653821e-06
3.3410676e-05
5.5758997e-06
1.6617782e-05
7.2006023e-05
9.8266231e-08
3.9457839e-08
1.3585259e-08
6.5815626e-13
5.6978915e-05
2.7271382e-06
2.1984847e-10
5.6077452e-05
1.680725e-07
1.036263e-12
1.0362341e-12
8.494725e-13
5.6962399e-05
7.029605e-07
8.3869703e-11
6.6049613e-06
2.9481715e-09
1.1905766e-12
8.0470158e-12
9.6812347e-13
2.8597135e-05
5.9443551e-07
7.5581494e-12
1.2490992e-12
6.8055294e-14
3.9191401e-12
4.3070032e-11
1.5773984e-08
7.8687033e-07
3.8135185e-08
1.1863099e-11
2.2387007e-14
5.6839277e-12
4.65024e-13
7.5219989e-11
4.2237774e-09
2.9364509e-13
1.1041809e-14
3.8381492e-14
7.437271e-15
4.8244146e-14
3.746052e-14
7.7164957e-13
2.517502e-12
6.2726761e-15
8.5261778e-15
5.5690044e-14
5.0832978e-15
6.6602491e-16
3.9986205e-16
9.3513387e-14
1.0547963e-12
3.873543e-15
8.4909299e-15
5.3126357e-16
4.5840546e-16
3.1052892e-06
6.0942264e-09
2.5386352e-09
1.0826047e-08
2.5582764e-06
1.197739e-06
2.8947982e-05
7.2005634e-05
3.2004567e-10
4.9667212e-08
3.8938329e-08
7.4766823e-13
3.3998952e-05
4.0065209e-06
8.1803126e-07
7.2005323e-05
1.0309252e-10
9.1598957e-10
3.5737205e-09
8.371784e-13
4.9068262e-05
1.1922612e-07
1.3696745e-06
6.3199431e-05
7.8254257e-10
1.4373354e-10
2.3829789e-10
8.3782854e-13
4.9033627e-05
3.1480133e-07
1.5502539e-06
5.6146365e-06
3.7695912e-11
2.3398767e-11
2.8533058e-11
9.8690065e-13
3.2221599e-05
1.4609601e-07
3.3135526e-14
2.0269183e-12
4.3129012e-12
4.188393e-14
3.2002511e-11
3.9430375e-09
6.8321584e-06
1.1779984e-07
1.9494196e-14
3.3306968e-15
3.3045242e-14
2.9689621e-14
9.3750524e-12
2.7457155e-10
2.0813041e-12
6.7072441e-09
2.2561971e-11
5.6289093e-16
9.0125024e-16
2.0480946e-15
1.0296297e-13
7.2853698e-13
6.9332968e-15
6.521376e-15
1.3414752e-17
4.0951502e-16
4.4298785e-06
3.0539174e-10
1.2545118e-08
8.3719887e-13
1.5538774e-06
2.2047334e-07
2.2167344e-05
2.8398553e-05
4.0874174e-11
4.5184323e-08
4.8437458e-09
8.3717874e-13
1.2410392e-05
2.7803841e-06
8.5476298e-06
3.7299541e-05
4.0256695e-11
4.0874174e-11
6.3230849e-10
8.3719887e-13
1.2320048e-05
1.1871495e-07
5.9726046e-06
6.3987622e-05
2.7620486e-10
1.0118915e-09
3.1502147e-09
8.371784e-13
3.0422892e-05
9.9775036e-07
4.9017926e-06
6.4022545e-05
5.5352251e-11
7.1993765e-10
3.1225482e-09
5.6257761e-13
3.346573e-05
1.0129928e-06
9.0565574e-07
2.0635469e-05
8.3930597e-12
3.1246851e-11
3.8964202e-14
1.462152e-13
7.6768533e-06
4.9418626e-07
3.3176707e-14
2.7023553e-12
8.4657058e-13
2.8485194e-17
1.9234544e-16
3.2988869e-15
1.0071656e-12
2.1949592e-09
1.9523084e-11
2.8272241e-15
1.6882655e-17
2.7614019e-17
1.4979716e-17
1.7368025e-16
1.355965e-15
2.0291974e-17
4.0652518e-18
1.0718606e-17
3.2312591e-06
2.9471422e-10
7.9496682e-11
0.00048258801
2.0258992e-05
2.0087203e-09
1.75771e-06
5.654759e-06
3.07061e-06
1.5899025e-08
6.9860256e-11
0.00050255432
4.471282e-06
2.9389439e-09
9.8938397e-06
4.226438e-05
2.7244361e-11
9.0523168e-11
6.9877523e-11
0.00046790007
1.127381e-05
2.0879496e-09
2.1266632e-06
6.3828308e-05
1.7943696e-11
7.1731714e-10
6.9860256e-11
0.00043774097
8.8740221e-06
5.3624331e-07
4.3292539e-06
6.4115306e-05
3.3298409e-11
8.0492132e-10
7.917638e-11
0.00046519273
1.0411643e-05
6.0037924e-07
1.5410519e-06
4.8270563e-05
6.6304876e-12
7.4864808e-10
2.6268901e-06
0.00034368637
4.0439397e-06
2.0258737e-07
2.0846839e-08
3.6931185e-06
1.1476464e-10
1.0635458e-09
3.1062878e-06
9.2806477e-05
1.4832481e-06
1.4290674e-12
2.2782934e-12
8.3259365e-13
2.8377881e-10
2.8486256e-17
1.7477383e-06
2.4285054e-05
4.0884118e-07
2.2792072e-14
1.0115452e-10
1.6670739e-11
1.1303026e-06
1.9227115e-10
2.0599974e-06
0.0010308181
0.00025637309
1.9661448e-09
2.7087514e-07
8.385664e-07
2.3001698e-06
1.4920234e-11
5.5526881e-05
0.0010313432
0.00023051959
1.9441471e-09
1.0108628e-05
4.3684087e-05
3.8032299e-09
1.1883595e-11
6.6883418e-05
0.0010313899
0.00022682098
1.9221427e-09
4.000749e-06
6.4138878e-05
7.7753748e-12
8.5229303e-12
7.4792702e-05
0.0010319649
0.00017891522
1.5672267e-07
3.3569639e-06
6.4139406e-05
7.2123244e-12
7.7990684e-12
7.9284162e-05
0.0010322484
0.00015559978
6.4163368e-07
1.4730932e-06
5.0523374e-05
6.7640339e-12
7.3905643e-12
7.3036224e-05
0.001031276
0.0001195802
8.2722034e-10
7.2225627e-08
4.9520202e-06
1.8787564e-10
2.8351106e-09
4.1649955e-05
0.0010307958
6.1219576e-05
4.3258185e-11
2.860388e-12
3.593178e-12
6.9624662e-10
5.3747255e-08
6.0179137e-05
0.0009640117
5.852528e-05
4.8105612e-09
6.6479803e-10
2.614772e-11
1.3403226e-07
5.7841985e-10
6.0966243e-10
0.00097000875
0.00038275276
1.9867193e-09
1.4243126e-07
2.0503755e-08
1.3577433e-06
1.3284189e-11
8.1299656e-10
0.00098813741
0.00038157232
1.9221428e-09
7.5241266e-06
2.0741783e-05
1.3840818e-09
1.2202507e-11
1.3284315e-11
0.0010199767
0.00032307728
1.9223901e-09
5.682376e-06
6.3501276e-05
8.5229302e-12
1.1046613e-11
1.1644817e-11
0.0010333203
0.00031071965
1.5419869e-09
3.7012662e-06
6.4115306e-05
7.2301402e-11
9.9255703e-12
6.0627358e-11
0.0010333555
0.0002912028
9.3997095e-10
1.320509e-06
2.979557e-05
5.5245791e-11
3.2755058e-11
2.4756542e-10
0.0010318197
0.00024974173
3.634981e-10
3.4317575e-08
2.5901065e-06
1.5793368e-10
9.0403349e-09
4.9743008e-09
0.0010289925
0.00017895969
8.8851577e-12
5.854794e-12
3.2995794e-12
1.6796595e-10
3.7658006e-08
2.942943e-05
0.0010252181
0.00017224976
1.1281728e-08
1.1601678e-09
1.2221051e-10
6.6335022e-09
5.9079845e-10
0.00034213534
0.0010347788
9.7669878e-05
1.6432088e-05
7.2182607e-07
1.3169977e-08
2.1240801e-07
3.0849164e-10
0.00043211084
0.0010347283
0.00011966768
3.6345915e-06
3.2408488e-06
2.5483581e-06
1.147939e-11
1.3121269e-11
0.00041840293
0.0010346945
0.00011820692
3.4294633e-07
4.1650964e-06
3.2457106e-05
1.125562e-11
1.1723032e-11
0.00047552375
0.0010345711
0.00010806871
4.4461739e-08
3.2745627e-06
4.207008e-05
1.1481965e-11
1.2338687e-11
0.00044848625
0.0010341537
8.6678129e-05
4.8947308e-09
8.3215516e-07
2.662418e-06
1.1974797e-11
6.5128518e-11
0.00047270055
0.0010333693
6.0399588e-05
2.1035376e-10
1.4476135e-11
4.0320323e-07
2.1754393e-10
1.6439993e-10
0.00037398857
0.0010320066
1.8037319e-05
1.4476155e-11
3.3014515e-12
2.8543135e-12
3.3903113e-10
6.3256797e-10
0.00039642045
0.00099137473
4.9981117e-07
4.0928918e-10
1.4476135e-11
6.3947824e-11
2.7400286e-11
1.0123823e-05
0.0002089462
0.00052922188
3.181067e-05
8.3274617e-06
5.644756e-06
2.6362193e-07
1.917055e-11
1.0804516e-05
0.00028210177
0.00068259062
1.7955073e-05
1.3970748e-06
6.5101041e-07
3.7973943e-07
1.384901e-11
4.3664742e-06
0.00027090297
0.00074121026
9.4024921e-06
4.3545193e-07
1.7095227e-06
3.7641879e-06
1.1479062e-11
1.5115269e-11
0.00041133343
0.00073201393
2.115119e-05
3.3197974e-07
7.8364656e-07
6.698249e-06
1.1972229e-11
1.5238207e-11
0.00046844367
0.00065303542
2.5112741e-05
1.5502241e-06
7.894323e-09
3.4673214e-11
2.41605e-11
2.3306151e-11
0.00045208188
0.00064942063
2.0360738e-05
4.3556417e-06
3.2469603e-07
2.8143573e-09
9.8487722e-11
6.9276286e-11
0.00049547359
0.00054026171
1.7155773e-05
4.5778931e-06
1.845321e-07
1.2608713e-12
5.9304045e-11
1.0246896e-05
0.00049196933
0.00049754447
1.0664278e-05
2.5041269e-06
3.8610602e-08
6.5014733e-11
5.3221452e-11
1.5053236e-05
4.8980879e-05
1.5948952e-05
8.3255876e-06
1.2059023e-05
1.0895317e-05
4.0698564e-08
7.9218793e-08
1.365881e-05
4.280331e-05
3.2447003e-05
6.1275716e-06
4.1236101e-06
1.3567612e-06
1.430646e-07
1.2989007e-07
1.4724749e-05
5.7289488e-05
2.8433772e-05
5.5844367e-06
4.984855e-06
2.7075933e-06
1.4249898e-07
1.5115269e-11
2.9168827e-05
0.0002288334
4.6325697e-05
5.7559623e-06
1.0714008e-05
7.8790642e-06
3.8374709e-07
1.5238207e-11
9.2829528e-06
0.00046744982
7.066507e-05
5.1195836e-06
2.2019929e-05
1.1357631e-05
1.3198713e-10
2.5234979e-11
4.6935714e-11
0.00047610205
6.8000757e-05
3.6147082e-06
2.0019754e-05
6.5687458e-06
1.5034208e-11
4.6940365e-11
6.3628348e-11
0.00047717843
4.8613852e-05
2.0402406e-06
8.2431756e-06
3.656433e-06
5.7266779e-10
6.3628367e-11
4.0640124e-10
0.00048879843
2.7566906e-05
1.0102505e-06
4.1402973e-06
2.0085187e-06
3.8489598e-09
2.7819553e-09
1.0896172e-05
2.9899087e-05
1.8020117e-05
8.3840495e-06
0.00014182766
2.0282787e-06
2.8305403e-09
1.159927e-07
7.4580572e-06
1.6298416e-05
1.665031e-05
6.2628604e-06
8.1818581e-05
6.4121086e-06
2.8305403e-09
1.9950731e-06
9.0369968e-06
1.279866e-05
1.3936338e-05
1.132801e-05
2.0329152e-05
4.912856e-06
3.4535721e-09
9.2771692e-06
5.9870304e-05
5.919592e-05
1.41698e-05
0.00020077418
4.4515952e-05
7.8703419e-06
2.9459981e-09
7.8071352e-07
5.9838137e-05
0.00010630591
2.24842e-05
0.00034442717
4.936635e-05
5.7968479e-06
1.2783753e-09
4.6935714e-11
2.497626e-05
8.3955576e-05
2.484707e-05
4.1556903e-06
1.2533505e-05
3.3851277e-06
1.7047688e-09
1.0615532e-06
3.7109035e-05
0.00018557172
3.9947215e-05
3.0815899e-06
1.0733841e-05
1.6115632e-06
1.6895843e-09
1.7053687e-07
4.9193135e-05
0.00032894207
5.683024e-05
2.0954189e-06
8.8014745e-06
9.0094036e-07
1.2498631e-09
3.4758332e-09
1.4899529e-06
1.5199763e-06
0.0019625933
0.011092456
3.681226e-08
2.1329643e-06
2.8302813e-09
4.4284564e-07
7.769437e-06
3.6778121e-06
0.0020461774
0.011480736
3.4568199e-08
2.8082038e-06
2.9646693e-09
1.8481794e-06
1.12973e-05
5.446567e-06
0.0016646348
0.01091824
3.1926466e-08
1.7111863e-06
3.578247e-09
6.8888344e-06
5.2405228e-05
1.7303897e-05
0.0021488802
0.010353875
3.037e-08
1.0556276e-06
3.5130983e-09
5.9753178e-06
5.9748762e-05
2.1969336e-05
0.001494577
0.0088897195
7.2552939e-05
3.5145512e-09
2.8992182e-09
5.2564594e-06
5.9660735e-05
2.4000172e-05
0.0014732113
0.0079969215
4.3238784e-05
3.863052e-09
3.4997638e-09
1.0668324e-06
5.9396995e-05
2.6050992e-05
0.00097140651
0.0067477736
6.1057371e-05
3.8000115e-09
3.1924001e-09
6.1707936e-10
3.627713e-05
2.8318853e-05
0.00058650108
0.0054365791
4.6546852e-05
3.9770426e-09
2.5301395e-09
1.8971498e-05
8.3728642e-07
0.002160375
0.04603958
0.038887871
3.4568199e-08
4.3955926e-07
8.0099221e-06
4.4786796e-07
2.3799632e-06
0.00061066138
0.048221865
0.041162349
3.1926466e-08
3.45682e-08
1.1700736e-06
4.6230894e-07
1.3936344e-06
0.00090401951
0.046067661
0.040149498
3.037e-08
3.0064836e-08
6.4810276e-06
1.5136425e-06
4.049755e-06
0.00059163456
0.040803472
0.04095523
2.551665e-08
1.9543066e-08
8.1015823e-06
5.7626821e-06
3.1128207e-06
0.00091923161
0.036175442
0.03719683
1.9549197e-08
1.6907549e-08
3.5373847e-09
5.826236e-06
2.8537329e-06
0.0016392594
0.028096086
0.034675791
1.8044823e-08
1.6062602e-08
4.3448449e-09
1.219029e-06
2.460089e-06
0.0010434884
0.021424718
0.027254984
1.7586345e-08
1.6460429e-08
3.8277883e-09
1.9417633e-06
2.4445033e-05
0.00035316493
0.023131632
0.021652476
1.717863e-08
1.5719989e-08
8.6302933e-08
0.00010130855
5.7726786e-07
0.063247041
0.1905867
0.19060696
0.03814538
2.6925794e-07
6.8216397e-05
2.4192762e-05
7.8303416e-07
0.080053093
0.1905899
0.19059614
0.049942245
5.6414406e-08
4.5889063e-05
4.2150695e-06
2.7365893e-06
0.074077268
0.19057093
0.1905904
0.049454585
7.3589606e-08
3.5688241e-05
3.4178971e-07
9.8794708e-07
0.086402882
0.19054251
0.19055719
0.055329819
6.188861e-08
9.7072796e-06
7.9139744e-08
1.3562602e-05
0.077565461
0.19052734
0.190379
0.054229895
1.9562927e-08
7.5416472e-08
6.6046012e-08
8.7042284e-05
0.083601632
0.19037237
0.19000917
0.054676296
9.0169805e-08
5.2282196e-08
9.4465782e-08
1.8345032e-06
0.072471609
0.18857616
0.1895262
0.048844231
1.2307429e-06
2.6637446e-08
1.9007647e-07
4.5117131e-05
0.076855022
0.16221022
0.18820478
0.042991911
1.7378204e-08
3.5120857e-08
3.4707196e-05
2.9936278e-07
0.018983886
0.17082264
0.19060696
0.014907236
6.0145151e-07
6.8175781e-05
5.2067742e-05
2.9613363e-07
0.024144564
0.17370061
0.19060696
0.023695549
6.0565719e-07
5.0495592e-05
4.2895552e-05
2.2961655e-07
0.020326297
0.17622373
0.19059339
0.022755596
1.8409152e-07
1.9098793e-05
7.0192549e-08
2.1729355e-07
0.026277888
0.17417637
0.1905586
0.022512068
1.5527702e-07
2.30966e-07
6.468648e-08
7.9347515e-08
0.021360125
0.16196124
0.19052299
0.017262982
8.3552051e-08
1.7694314e-07
6.3544789e-08
4.0099135e-07
0.027272851
0.15650186
0.18939825
0.011180301
1.1294328e-07
3.8935855e-07
6.3810531e-08
9.9281848e-08
0.025404147
0.11714813
0.17052652
0.0092591356
8.5171494e-07
2.1826202e-06
3.8151179e-06
1.2214339e-05
0.032350029
0.098621158
0.15221019
0.013943522
8.6757278e-07
1.3623305e-06
1.5448877e-05
2.5238951e-07
2.9936278e-07
0.025063594
0.049700205
2.0997521e-05
1.719846e-05
5.695396e-05
1.0602355e-05
1.9304621e-07
0.0010446305
0.022206857
0.052239095
0.0016632737
0.0001621625
0.00011968084
9.5071952e-06
1.1355229e-07
0.0014314499
0.022528696
0.047294595
0.0022895759
0.00010679533
0.00017535688
1.0598057e-05
8.2064568e-08
0.0024299589
0.021282754
0.052166837
0.002131913
2.3096584e-07
0.00014752383
6.8670443e-08
7.0589412e-08
0.0022314775
0.020230922
0.037357109
0.0039166633
2.343228e-05
7.7528071e-06
6.2903417e-08
6.3775512e-08
0.0013938345
0.025713827
0.031455219
0.0038535968
2.4255359e-05
5.8215856e-06
6.2834518e-08
6.1982309e-08
1.6411587e-05
0.02804978
0.022685976
0.0036747146
8.5674344e-05
2.173161e-05
1.3782255e-06
6.5941794e-08
0.00035185669
0.017763675
0.016412441
0.0038919527
0.00028676192
1.0788587e-05
1.8468699e-05
1.9304997e-07
0.0010225603
0.0061036818
0.0059322045
2.4512509e-05
3.1033747e-06
8.6902063e-06
1.1857629e-05
1.2022654e-07
0.000712322
0.0069583748
0.0067351504
7.8162674e-05
7.8242212e-06
1.4950028e-05
1.2022653e-07
8.8738813e-08
0.00038981963
0.0060753222
0.0062915935
0.00034949536
2.5742093e-05
4.3648136e-05
7.7271545e-07
7.0589415e-08
0.00017003861
0.0061733303
0.0050895756
0.00042967917
0.00020844567
3.0212768e-05
7.8071051e-08
6.1982237e-08
0.00011875834
0.0048851222
0.0057306749
0.0005915486
0.00032301279
7.8040144e-06
6.1982334e-08
6.193423e-08
0.00016249217
0.0028140067
0.0046368195
0.00054237332
0.00035017907
0.00013770225
6.9912282e-08
6.1982098e-08
0.00017306853
0.0017000675
0.0047013951
0.00095879863
0.00012525953
0.00018460645
2.1170537e-07
6.1982098e-08
0.00011420803
0.00056049601
0.0024280427
0.0011019603
8.6258718e-05
8.6886789e-05
4.5750858e-06
1.51471e-06
1.5219082e-06
1.6401415e-06
0.00018504837
0.00063135158
0.00011361871
1.3741661e-05
2.066884e-05
4.7424949e-06
1.5536886e-06
1.1803795e-05
0.00037144743
0.00094586437
0.00042023885
7.8744341e-06
1.7706727e-07
1.0109811e-05
1.5977782e-06
1.554547e-05
0.00036078072
0.00095164466
0.00016447704
2.0851647e-06
3.6349692e-07
3.1959904e-06
1.5694533e-06
5.8304875e-05
0.0005672336
0.00095088648
0.00023376387
2.3101156e-05
6.8821854e-08
4.0125707e-06
1.6006982e-06
9.7835943e-05
0.0004753598
0.00069698077
0.00016792551
7.260555e-05
6.2065445e-08
6.1984432e-08
7.8521462e-06
0.00010870654
0.00041433594
0.0001039662
0.00010452988
4.3869474e-05
6.3034695e-08
6.1987641e-08
1.0753129e-05
5.8291257e-05
0.00057984349
0.00020949888
0.00017104229
3.885579e-05
6.4750811e-08
2.4838951e-07
4.7941025e-06
5.8359071e-06
0.00031230011
0.00051695139
0.00017597191
9.7944102e-06
8.6464421e-06
2.5448586e-06
1.9977375e-05
2.4760924e-06
1.5967626e-05
0.0002537714
7.1845269e-05
2.4017982e-05
9.8779612e-06
3.4498144e-06
3.1665913e-06
1.0529624e-05
2.791613e-05
0.00025270975
6.8835794e-05
3.7407368e-06
1.8857591e-06
1.2658041e-05
2.7510185e-06
9.1534941e-06
6.1833619e-05
0.00032959643
9.535408e-05
1.0142934e-06
1.4811089e-06
3.6809122e-06
1.5682507e-06
2.8646534e-06
3.6454997e-05
0.00094820322
6.1331063e-05
7.7689211e-06
1.1984089e-07
4.3316589e-06
1.5650847e-06
1.7228612e-07
3.006366e-05
0.00048982641
0.00012450237
7.4921174e-06
7.1358346e-08
1.3882894e-06
1.6158501e-06
8.4754681e-07
1.3057578e-05
1.4909117e-05
2.4299984e-05
6.2096687e-06
6.4253919e-08
6.3033948e-08
1.6514407e-06
6.078501e-07
2.3883761e-05
0.00010443134
8.3916387e-05
1.0581692e-05
8.0891187e-08
1.3325344e-07
2.2094314e-06
2.5490215e-07
1.9294744e-05
0.00046947769
0.00010405164
8.6251025e-07
9.3225537e-06
7.920911e-06
2.3624162e-05
2.4802831e-06
2.4568154e-09
2.436463e-07
2.4450472e-05
2.6573704e-05
8.9412895e-06
2.250869e-06
7.7114249e-06
1.0761622e-05
1.9905921e-07
4.8295276e-06
4.2215564e-05
3.3773253e-06
1.6368506e-05
1.376023e-05
2.7348907e-06
1.0590588e-05
1.6643261e-06
1.1259846e-05
1.5992734e-05
1.8716977e-06
3.4096967e-07
4.5610432e-06
1.5694353e-06
2.6460292e-06
8.0886643e-06
0.00016562322
4.4963786e-05
9.3864061e-07
3.1369297e-07
4.2353351e-06
1.7167516e-06
1.427625e-07
2.4444525e-07
0.00048984196
2.9460869e-05
9.6602079e-07
7.4245822e-08
2.0027413e-07
1.095653e-06
1.5436313e-07
1.3708656e-07
0.0002079061
1.218849e-05
1.2112224e-06
6.4847412e-08
6.4253522e-08
7.4049677e-07
1.228775e-07
1.7765602e-06
0.00011171766
2.5131932e-05
1.0832366e-06
1.0283222e-07
6.4847301e-08
1.3301096e-06
1.1208235e-07
1.9591234e-06
0.00024150382
2.418595e-05
7.9038937e-07
5.9050387e-06
7.3921564e-06
2.3235969e-05
2.0044079e-06
2.1120014e-09
1.8473219e-07
9.2755918e-06
1.4365416e-05
4.9122156e-06
9.5012832e-07
1.6315564e-05
9.7283523e-06
7.7289632e-08
2.9097507e-06
2.1543659e-05
1.9024127e-05
2.4599897e-05
1.2413287e-05
4.7284873e-06
9.1593888e-06
5.7350339e-07
3.2679897e-06
1.9368483e-05
6.3170583e-06
4.0810158e-07
1.0212518e-05
7.1450519e-06
4.5238886e-06
8.6507497e-07
5.2008596e-06
4.4841817e-05
9.4581406e-07
2.8378461e-07
1.9766384e-07
6.6437235e-07
1.3941508e-07
1.369999e-07
6.0412573e-05
3.8882367e-05
9.713342e-07
6.801808e-07
9.8949679e-07
6.7327774e-07
3.8739896e-07
1.3422906e-07
0.0001284104
7.3044978e-06
8.6509958e-07
1.333569e-06
1.2996462e-06
8.2054857e-07
1.2014355e-07
1.3132591e-07
0.00010406029
5.1722105e-06
8.5511895e-07
1.2725676e-07
8.219925e-08
6.1874765e-07
1.0305662e-07
1.2849904e-07
2.4426842e-05
1.3567214e-05
6.8948343e-07
6.8858194e-07
4.8771947e-06
1.1738075e-05
1.8849504e-06
1.4093238e-09
4.1903879e-07
4.5216916e-06
3.0181611e-06
1.5170732e-08
1.6529807e-07
2.1396697e-05
6.8490728e-06
1.7867182e-09
5.6535812e-06
2.9021942e-05
2.9402548e-05
1.6839113e-05
1.0357838e-05
8.9646575e-06
3.4987311e-06
5.8939571e-08
4.8364822e-06
3.1685992e-05
2.7442221e-05
8.6416254e-06
1.5353777e-05
1.6256799e-05
1.1991287e-05
8.8954087e-07
2.559025e-06
4.4702736e-05
1.2144131e-06
9.2707729e-08
8.7471917e-08
9.2707732e-08
3.2482142e-06
2.4883465e-06
5.3291623e-06
3.715539e-05
1.7808972e-06
8.2619102e-07
6.7778336e-07
1.0348077e-07
7.8566e-07
1.3695354e-07
1.166943e-05
9.6786649e-06
2.5381477e-06
1.4894416e-06
1.4849436e-06
4.2162312e-07
9.6366527e-08
2.0395043e-07
2.0530067e-05
5.2693073e-06
1.149894e-06
1.1691209e-06
1.5222503e-06
3.2002091e-07
9.5059948e-08
9.6366527e-08
1.3535056e-06
7.8553223e-06
6.5231345e-07
5.424744e-09
2.1779506e-06
8.1640304e-06
1.435016e-06
7.1601913e-10
5.1869518e-07
1.7158173e-06
1.7187425e-06
5.9919344e-09
5.5897962e-08
2.1427263e-05
5.0298491e-06