/*--------------------------------*- C++ -*----------------------------------*\
  =========                 |
  \\      /  F ield         | OpenFOAM: The Open Source CFD Toolbox
   \\    /   O peration     | Website:  https://openfoam.org
    \\  /    A nd           | Version:  13
     \\/     M anipulation  |
\*---------------------------------------------------------------------------*/
FoamFile
{
    format      ascii;
    class       volScalarField;
    location    "0.07";
    object      p;
}
// * * * * * * * * * * * * * * * * * * * * * * * * * * * * * * * * * * * * * //

dimensions      [1 -1 -2 0 0 0 0];

internalField   nonuniform List<scalar> 
51200
(
0.90679256
0.89300448
0.88497708
0.88185624
0.88185577
0.88497574
0.89300245
0.90679012
0.89665937
0.88347432
0.87614107
0.87336092
0.87336047
0.87613977
0.88347233
0.89665694
0.88731534
0.87496769
0.86828748
0.86579426
0.86579382
0.86828622
0.87496575
0.88731292
0.87970763
0.86825391
0.8622094
0.85996145
0.85996103
0.86220818
0.86825203
0.87970524
0.87328494
0.86270832
0.85728658
0.85525534
0.85525495
0.85728541
0.8627065
0.87328259
0.86768477
0.85795279
0.85313084
0.85129413
0.85129375
0.85312973
0.85795105
0.86768247
0.86278666
0.85383081
0.84958159
0.84792363
0.84792328
0.84958053
0.85382915
0.86278443
0.85855649
0.85016358
0.84649225
0.84500471
0.84500437
0.84649124
0.850162
0.85855434
0.81935593
0.81863709
0.81817494
0.8176726
0.8176721
0.8181735
0.81863489
0.81935324
0.82037019
0.81977126
0.81929505
0.81879447
0.81879399
0.81929366
0.81976912
0.82036751
0.82150416
0.82108087
0.82059465
0.82009157
0.82009111
0.82059331
0.82107879
0.8215015
0.82266046
0.82238919
0.82188947
0.8213842
0.82138376
0.82188818
0.82238718
0.82265784
0.82383182
0.82364833
0.82313205
0.82262881
0.82262839
0.82313082
0.8236464
0.82382924
0.82496888
0.82480381
0.82427265
0.8237778
0.8237774
0.82427147
0.82480196
0.82496636
0.82601837
0.82581478
0.82527387
0.82479379
0.82479341
0.82527275
0.82581303
0.82601593
0.82687578
0.82661537
0.82606966
0.82560639
0.82560603
0.82606861
0.82661371
0.82687344
0.82123868
0.81996478
0.81919729
0.81882727
0.81882669
0.81919555
0.81996211
0.82123545
0.82153936
0.8202813
0.81957077
0.8192131
0.81921253
0.81956907
0.82027869
0.82153613
0.82183903
0.82061138
0.81996184
0.81961458
0.81961403
0.8199602
0.82060885
0.8218358
0.82197843
0.82079544
0.82021362
0.81988198
0.81988146
0.82021203
0.82079298
0.82197523
0.82199406
0.82087692
0.82036501
0.82005363
0.82005313
0.8203635
0.82087455
0.8219909
0.8219477
0.82090894
0.82046552
0.82017842
0.82017795
0.82046407
0.82090667
0.82194459
0.821841
0.82089109
0.82052057
0.82026399
0.82026354
0.82051919
0.82088894
0.82183796
0.8215162
0.82074853
0.8204741
0.82025862
0.8202582
0.8204728
0.8207465
0.82151327
0.81099046
0.8107568
0.81079192
0.81088304
0.81088228
0.81078968
0.81075341
0.81098648
0.81118293
0.8109991
0.81104312
0.81111397
0.81111324
0.81104095
0.8109958
0.81117895
0.81138194
0.81124372
0.81130126
0.81135436
0.81135366
0.81129915
0.8112405
0.81137796
0.81156375
0.81146257
0.8115371
0.81157804
0.81157737
0.81153507
0.81145945
0.81155978
0.81173411
0.81166754
0.81176137
0.81179456
0.81179392
0.81175942
0.81166452
0.81173017
0.81190495
0.81187009
0.81198353
0.81201237
0.81201176
0.81198167
0.81186719
0.81190106
0.81207354
0.81207539
0.81220839
0.81223694
0.81223636
0.81220661
0.81207262
0.81206972
0.81217449
0.81229564
0.81244711
0.81248215
0.81248161
0.81244543
0.81229302
0.81217079
0.80542781
0.8052604
0.80537136
0.80557112
0.80557009
0.8053683
0.8052559
0.80542271
0.80552847
0.80539899
0.80552078
0.80569859
0.80569759
0.80551781
0.80539457
0.80552336
0.80563839
0.80554427
0.80567912
0.80583741
0.80583644
0.80567625
0.80553996
0.80563328
0.80573134
0.80566687
0.80581843
0.80596333
0.8059624
0.80581565
0.80566267
0.80572624
0.80581007
0.80577279
0.80594462
0.80608116
0.80608026
0.80594195
0.80576872
0.80580499
0.80588153
0.80586892
0.80606401
0.80619613
0.80619528
0.80606145
0.80586499
0.80587648
0.80594128
0.80596149
0.80618305
0.80631493
0.80631412
0.8061806
0.80595772
0.8059363
0.80595897
0.80608666
0.80633448
0.80647147
0.80647071
0.80633217
0.80608306
0.80595412
0.80015168
0.80007852
0.80024859
0.80048465
0.80048316
0.80024433
0.80007241
0.80014513
0.80021519
0.80017633
0.80035357
0.80056782
0.80056638
0.80034942
0.80017032
0.80020861
0.80028517
0.80027821
0.80046392
0.80065875
0.80065736
0.80045989
0.80027231
0.80027857
0.8003491
0.80036766
0.80056362
0.80074418
0.80074284
0.80055971
0.80036189
0.80034249
0.80040845
0.80044805
0.80065635
0.80082688
0.80082559
0.80065258
0.80044243
0.80040184
0.80046661
0.80052273
0.80074548
0.80090938
0.80090815
0.80074187
0.80051728
0.80046003
0.80052053
0.80059582
0.80083519
0.800996
0.80099484
0.80083174
0.80059058
0.800514
0.80055201
0.80069433
0.8009498
0.80111203
0.80111094
0.80094654
0.80068931
0.80054561
0.79546632
0.79541417
0.79555919
0.79576759
0.79576537
0.79555305
0.79540566
0.79545778
0.7955059
0.79548035
0.79563218
0.79582308
0.79582092
0.79562619
0.79547191
0.79549729
0.79555014
0.79554959
0.7957088
0.795884
0.79588191
0.79570297
0.79554125
0.79554147
0.79559069
0.79561056
0.79577814
0.7959416
0.79593958
0.79577248
0.79560235
0.79558197
0.79562858
0.79566565
0.79584297
0.79599797
0.79599602
0.7958375
0.79565761
0.79561983
0.7956664
0.79571747
0.79590597
0.79605512
0.79605326
0.79590072
0.79570966
0.79565763
0.79570281
0.79576943
0.79597031
0.79611628
0.79611452
0.7959653
0.79576188
0.79569408
0.79572617
0.79583945
0.79605182
0.79619783
0.79619617
0.79604707
0.79583222
0.79571759
0.79107452
0.79103724
0.79114472
0.79130816
0.79130471
0.79113561
0.79102501
0.79106328
0.79110029
0.79108318
0.79119696
0.79134761
0.79134425
0.79118802
0.79107094
0.7910889
0.79112948
0.79113147
0.79125172
0.79139086
0.79138759
0.79124297
0.79111925
0.79111793
0.79115669
0.79117422
0.7913012
0.79143161
0.79142844
0.79129269
0.7911621
0.791145
0.79118249
0.79121288
0.79134725
0.79147126
0.79146821
0.79133901
0.79120095
0.79117068
0.79120852
0.79124919
0.79139174
0.79151126
0.79150835
0.79138382
0.79123755
0.79119664
0.79123395
0.79128547
0.79143677
0.79155376
0.79155099
0.79142921
0.79127422
0.79122207
0.79125024
0.79133304
0.79149211
0.79160879
0.7916062
0.79148496
0.79132226
0.7912385
0.78688094
0.7868517
0.78691929
0.78703544
0.78702992
0.78690523
0.78683342
0.78686561
0.78689837
0.78688409
0.78695749
0.78706514
0.78705973
0.78694361
0.78686556
0.7868827
0.78691832
0.78691824
0.78699745
0.78709747
0.78709217
0.7869838
0.78689954
0.78690227
0.78693702
0.78694841
0.78703331
0.78712755
0.7871224
0.78701998
0.78692971
0.78692065
0.78695481
0.78697547
0.78706632
0.78715636
0.7871514
0.7870534
0.78695697
0.78693816
0.78697279
0.78700058
0.78709781
0.787185
0.78718026
0.78708539
0.78698249
0.78695595
0.78699043
0.78702538
0.78712919
0.7872149
0.78721043
0.78711736
0.78700791
0.78697353
0.7870015
0.78705734
0.78716673
0.78725242
0.78724825
0.78715556
0.78704068
0.78698477
0.78282616
0.78280381
0.78283747
0.78291159
0.78290215
0.78281436
0.78277469
0.78280406
0.78283883
0.78282748
0.78286617
0.78293515
0.78292584
0.78284317
0.7827975
0.78281587
0.78285338
0.78285245
0.78289612
0.78296056
0.78295141
0.78287334
0.78282195
0.7828295
0.78286694
0.78287423
0.78292267
0.78298376
0.78297486
0.78290035
0.78284363
0.7828423
0.78287972
0.78289334
0.78294667
0.78300549
0.78299691
0.78292505
0.78286303
0.78285448
0.78289248
0.78291054
0.78296909
0.78302658
0.78301842
0.78294837
0.78288094
0.78286682
0.78290482
0.78292706
0.78299095
0.78304805
0.78304039
0.78297132
0.78289861
0.78287903
0.78291221
0.78294826
0.78301664
0.78307423
0.78306715
0.78299824
0.78292131
0.78288674
0.77888397
0.77886427
0.77886979
0.77890798
0.77889193
0.77883153
0.77887642
0.77884353
0.77889437
0.77888249
0.77889198
0.77892739
0.77891141
0.77885233
0.7788317
0.77885546
0.77890601
0.77890155
0.77891506
0.77894815
0.77893236
0.77887586
0.77885054
0.7788645
0.77891626
0.77891768
0.77893518
0.77896678
0.77895141
0.77889699
0.77886662
0.77887301
0.77892542
0.77893122
0.77895292
0.77898382
0.77896906
0.77891612
0.77888073
0.77888134
0.77893419
0.77894269
0.77896899
0.77899993
0.77898594
0.77893395
0.77889358
0.77888984
0.77894225
0.77895304
0.77898422
0.77901587
0.77900281
0.77895129
0.77890615
0.77889824
0.77894617
0.77896652
0.77900202
0.77903489
0.7790229
0.7789714
0.77892249
0.77890342
0.77505562
0.7750247
0.77500115
0.77500454
0.7749727
0.77492376
0.77524787
0.77496147
0.77506608
0.77503928
0.77501876
0.7750208
0.7749887
0.77493568
0.77495785
0.77498296
0.77507603
0.77505431
0.77503703
0.77503819
0.77500641
0.77495872
0.77497
0.77498804
0.77508326
0.77506616
0.77505247
0.7750536
0.77502303
0.77497946
0.77498118
0.7749927
0.77508839
0.77507505
0.77506549
0.77506742
0.77503859
0.77499738
0.77499095
0.77499786
0.77509236
0.77508138
0.77507667
0.77508016
0.77505339
0.77501346
0.77499967
0.77500333
0.77509488
0.77508586
0.77508666
0.77509241
0.77506797
0.77502862
0.77500824
0.77500869
0.77509322
0.77509221
0.77509842
0.77510682
0.775085
0.77504565
0.77501988
0.77501162
0.77158738
0.77128275
0.77121158
0.77118022
0.77114765
0.77327065
0.77141586
0.77113926
0.77146638
0.77128326
0.77122536
0.77119298
0.77113928
0.77110589
0.77115567
0.77117348
0.77144121
0.7712899
0.7712398
0.77120739
0.77115447
0.77113441
0.77115853
0.77117691
0.77141851
0.77129582
0.7712516
0.77122072
0.77117099
0.77115423
0.77116355
0.77117853
0.77139838
0.77129997
0.77126104
0.7712327
0.77118659
0.77116984
0.77117102
0.77118144
0.77138123
0.77130189
0.77126849
0.77124358
0.77120148
0.77118362
0.77117823
0.77118506
0.77136677
0.77130177
0.77127454
0.77125388
0.77121617
0.77119648
0.77118515
0.77118866
0.77135445
0.77130307
0.77128219
0.7712661
0.77123298
0.77121098
0.77119472
0.7711905
0.76908317
0.76789323
0.76752255
0.76744853
0.76728232
0.77333455
0.76746759
0.76790015
0.7684177
0.76769526
0.76752745
0.76743142
0.76722571
0.76748482
0.76742876
0.76743586
0.76824487
0.76767422
0.76753719
0.76744334
0.76728105
0.76748029
0.76741315
0.76744191
0.76814119
0.76766225
0.76754442
0.76745729
0.76732692
0.76748334
0.76741672
0.76744015
0.76804736
0.7676519
0.76754902
0.76747003
0.76736177
0.76748319
0.76742484
0.76744007
0.7679607
0.76764137
0.76755128
0.76748106
0.7673923
0.76748188
0.76743188
0.76744108
0.7678856
0.7676296
0.76755145
0.76749087
0.76741947
0.76748121
0.7674381
0.76744226
0.76782745
0.76761692
0.76755214
0.7675019
0.76744532
0.76748304
0.76744655
0.76744224
0.76568067
0.76405668
0.76375322
0.76400032
0.7736987
0.76924947
0.76358024
0.76425931
0.76477703
0.76388105
0.76376931
0.76369325
0.7634344
0.76378911
0.76377908
0.76374188
0.76463812
0.763857
0.7637835
0.76370402
0.76356413
0.76374154
0.76368279
0.76375051
0.76449523
0.76385236
0.76379476
0.76371945
0.76363494
0.76372691
0.76368756
0.7637447
0.76435901
0.76385344
0.76380328
0.76373487
0.76368679
0.7637279
0.76369471
0.76373837
0.7642414
0.76385448
0.76380931
0.76374882
0.76372987
0.76373288
0.76370219
0.76373292
0.76414492
0.76385396
0.76381323
0.76376165
0.76376487
0.76373967
0.76371029
0.76372963
0.7640824
0.76385478
0.76381872
0.7637772
0.76379554
0.76375007
0.76372142
0.76372827
0.76513766
0.76011085
0.76000953
0.76052789
0.79956017
0.7623958
0.75990079
0.76013613
0.76113271
0.75998917
0.76005456
0.76004414
0.76086942
0.76011797
0.76006826
0.7601016
0.76152588
0.76011571
0.76008058
0.76003871
0.76086513
0.75987886
0.7599993
0.76009926
0.76093365
0.76008672
0.76009965
0.76006498
0.76085623
0.75990853
0.76000144
0.76008606
0.76072866
0.76008572
0.76011349
0.76008655
0.76081367
0.75995767
0.7600101
0.76007342
0.76056114
0.76008844
0.76012399
0.76010434
0.760757
0.76000397
0.76002408
0.76006362
0.76042421
0.76008913
0.7601313
0.76011994
0.76069671
0.76004554
0.76004019
0.76005715
0.76033265
0.76009073
0.76013764
0.76013747
0.76063534
0.76008546
0.76005803
0.760056
0.76486324
0.7557871
0.75593541
0.75633926
0.7824503
0.75930051
0.75603717
0.75642325
0.75639842
0.75550973
0.75599079
0.75636859
0.75787472
0.75620509
0.75615872
0.75642024
0.7568769
0.75571028
0.75607082
0.75629743
0.75762335
0.75594029
0.75616409
0.75641723
0.75674985
0.75582614
0.75613731
0.7563204
0.75756872
0.75601604
0.7561795
0.75641133
0.75665523
0.75589359
0.75619045
0.75634629
0.75749704
0.75610028
0.75620303
0.75640122
0.75649059
0.7559393
0.75623633
0.75637133
0.75741746
0.7561862
0.75623204
0.7563904
0.75636542
0.75598455
0.75627694
0.75639677
0.75733602
0.75626901
0.75626585
0.75638023
0.75626891
0.75603021
0.7563147
0.75642694
0.75725402
0.75635441
0.75630657
0.75637492
0.75843242
0.75266571
0.75185163
0.75238195
0.75796189
0.75626807
0.75722904
0.7647908
0.75718616
0.7522563
0.7518864
0.75252964
0.75709744
0.75199188
0.75194198
0.75299754
0.7533392
0.75190682
0.75194826
0.75257084
0.75494167
0.75198
0.75206679
0.7529147
0.75215053
0.75182874
0.75203246
0.75260281
0.75477181
0.75211763
0.75214642
0.75286081
0.75202317
0.75181871
0.75212291
0.75265862
0.75460538
0.7522833
0.75221214
0.7528422
0.75197494
0.75182692
0.75221199
0.75271081
0.75442987
0.75243596
0.75228519
0.75282366
0.75195716
0.75185032
0.7522975
0.75276203
0.75425779
0.75257501
0.75236487
0.75279922
0.75194389
0.75189082
0.75238118
0.75281564
0.75408424
0.75271875
0.75245637
0.75277582
0.75142238
0.74886333
0.74806693
0.74886249
0.75505978
0.7510395
0.75865661
0.78593888
0.75089383
0.74832066
0.74809072
0.74892752
0.7548153
0.74811486
0.74776742
0.75127006
0.7486218
0.74808133
0.74815081
0.74903091
0.75290776
0.74859417
0.74803329
0.75093914
0.74771619
0.74805871
0.74824715
0.74909349
0.75122862
0.74818332
0.748191
0.75053564
0.74784514
0.74810542
0.74835624
0.74915435
0.7510736
0.74842906
0.7482424
0.75028248
0.74793125
0.74816454
0.74846837
0.74922283
0.75089352
0.74866466
0.74831575
0.75006994
0.748019
0.74823657
0.74858262
0.74929602
0.75073661
0.74886795
0.74841062
0.74986644
0.74811939
0.74831703
0.74870279
0.74937904
0.75058882
0.74907642
0.74853122
0.74966663
0.7452318
0.74476855
0.74410752
0.74651612
0.73959033
0.745389
0.75090658
0.75419816
0.74464284
0.74457907
0.74398273
0.7456827
0.75710438
0.74357866
0.74453765
0.74450717
0.74439635
0.74456878
0.74409519
0.74627625
0.75615469
0.74462947
0.74318865
0.7487209
0.74432946
0.74456441
0.74430045
0.746425
0.75032648
0.74505056
0.74364232
0.74799805
0.7443208
0.74458299
0.74452028
0.74649464
0.7495026
0.74496336
0.74394025
0.74744071
0.74433448
0.74462469
0.74473102
0.74656861
0.74915124
0.74532204
0.74417019
0.74702577
0.74436999
0.74469144
0.74493923
0.74665588
0.74866237
0.7456172
0.74440349
0.7466579
0.74443857
0.74478292
0.74516107
0.74673978
0.74824716
0.74588951
0.74465286
0.74630853
0.74142518
0.73989723
0.73999671
0.74304415
0.7591832
0.74342889
0.75259971
0.74542632
0.7397687
0.73992188
0.73990416
0.74295753
0.73837516
0.74443461
0.74408338
0.7448554
0.7396439
0.73983011
0.73983826
0.74264614
0.75749892
0.74097899
0.74110855
0.74131428
0.73954596
0.739848
0.74001336
0.74289465
0.75684615
0.74219935
0.74273331
0.74079857
0.73950939
0.73992451
0.74028476
0.74313659
0.74746698
0.74250718
0.74125053
0.7416446
0.73952036
0.74004955
0.74057866
0.74337813
0.74524087
0.74241652
0.74131376
0.74167661
0.73957688
0.74022345
0.7409074
0.74377247
0.74473338
0.74244547
0.74143697
0.74162807
0.73972191
0.74047348
0.74132245
0.74417318
0.74445867
0.74263468
0.74157449
0.74161466
0.7362138
0.73529117
0.73522188
0.74445997
0.74099224
0.73825548
0.74038239
0.72556444
0.73463898
0.7352878
0.7352216
0.74401162
0.7325479
0.73986209
0.73858413
0.71789098
0.73431599
0.73522895
0.73537611
0.74504437
0.73223016
0.7375082
0.73846001
0.74975674
0.73427536
0.7353055
0.73569964
0.74462335
0.74501019
0.73740196
0.73779096
0.74766438
0.73429108
0.7354623
0.7361655
0.74355687
0.74898743
0.73791815
0.73630178
0.74111013
0.7343616
0.73570116
0.73676889
0.74501814
0.73803628
0.73784047
0.7361664
0.73986191
0.73449362
0.73602236
0.7375076
0.74705774
0.73887845
0.73793257
0.73629178
0.73930577
0.73474855
0.73643098
0.73839241
0.74797299
0.73934055
0.73829202
0.73648129
0.73879531
0.73094663
0.72418697
0.72743201
0.81620056
0.73227575
0.72942218
0.74031507
0.77626736
0.7300098
0.72370183
0.72612648
0.82550613
0.7310213
0.72885986
0.73475104
0.75121862
0.72880895
0.72349496
0.72767235
0.81581244
0.73207325
0.72834968
0.73227397
0.75578702
0.7282612
0.72335087
0.7288693
0.81121604
0.73166917
0.7279844
0.73039585
0.75580756
0.7277758
0.72364996
0.73006645
0.82600746
0.7319838
0.72809372
0.73029335
0.73556563
0.72746967
0.72464569
0.73174693
0.76446329
0.73148239
0.72891557
0.73075818
0.73249388
0.72739116
0.72620156
0.73234658
0.75889792
0.73241394
0.73016783
0.73092098
0.73221863
0.72765524
0.72798693
0.73465193
0.77130009
0.73401971
0.73145928
0.73119625
0.73212502
0.72409912
0.72011075
0.70371864
1.0215769
0.75198188
0.72838945
0.74126796
0.77218367
0.72217991
0.71937941
0.71201668
1.0179424
0.7447962
0.72804361
0.73199921
0.74615533
0.72047375
0.71945574
0.71713843
1.0175275
0.74552063
0.72875535
0.73096865
0.75101227
0.72007804
0.7195051
0.72189334
1.019608
0.73900741
0.72927517
0.72847141
0.7514098
0.71996045
0.71968052
0.72681908
1.0233059
0.73799898
0.72956929
0.72809734
0.73221111
0.7200759
0.72016519
0.73120624
1.0237702
0.73592917
0.72981224
0.72881586
0.72874246
0.72040869
0.72137526
0.74058758
1.0252681
0.73958063
0.73034483
0.72889754
0.72852907
0.72110812
0.72368845
0.74872812
0.98307966
0.74224211
0.73078707
0.72898848
0.72844751
0.71202321
0.69484775
0.66690354
1.0102654
0.76341347
0.71164287
0.73613535
0.75105742
0.71044931
0.69194873
0.67578316
1.0174723
0.76235482
0.71146921
0.72858821
0.73815504
0.70820868
0.68994566
0.68343521
1.0479531
0.75455735
0.71247237
0.72709844
0.75901824
0.70743676
0.6891785
0.69473671
1.0608066
0.7566454
0.71312223
0.72466724
0.76025021
0.70689381
0.69016814
0.70758545
1.0530518
0.75400443
0.7141496
0.7233952
0.72310656
0.70672802
0.69282206
0.72054853
1.0424362
0.74486159
0.71590077
0.72353745
0.72119145
0.70698904
0.69703972
0.73296546
1.0311798
0.74615101
0.71803609
0.72365561
0.72120024
0.70783751
0.70190519
0.74211452
1.0195396
0.74966333
0.72046547
0.72379907
0.72142668
0.70443569
0.69717291
0.75471659
1.0002736
0.71521912
0.72166018
0.7231499
0.72400886
0.70384871
0.69405902
0.76875442
1.0011106
0.71858795
0.71555431
0.72130094
0.72188202
0.70305885
0.69700987
0.76489935
1.0020279
0.71974236
0.71792581
0.72055899
0.73689795
0.70270428
0.70014483
0.78066184
1.0012805
0.71960447
0.71892638
0.71958244
0.75101115
0.70286852
0.70243851
0.7734304
1.0018521
0.71823674
0.71925285
0.71775511
0.71330392
0.7033273
0.70492333
0.77880901
1.004941
0.71780922
0.71950592
0.71844968
0.71334166
0.70408171
0.70744561
0.76850989
1.0073297
0.72369402
0.72011387
0.71908966
0.71368703
0.7051165
0.71053952
0.77710564
0.9779011
0.730021
0.72151186
0.71998196
0.71446339
0.69287312
0.66100126
0.75484766
0.8719539
0.72074543
0.71058115
0.71157261
0.70655907
0.69105789
0.6589107
0.75876158
0.83976829
0.71796807
0.70785252
0.70902004
0.70620621
0.68921862
0.66020056
0.76428581
0.89188352
0.72043826
0.70927932
0.70841131
0.70663681
0.68696284
0.66274783
0.7898364
0.88571014
0.72301538
0.71089633
0.70885244
0.70982669
0.68501248
0.66667133
0.82786806
0.85263506
0.72557853
0.71203478
0.70917147
0.70446942
0.68396786
0.67687418
0.80850165
0.85078901
0.72602917
0.71389736
0.71004041
0.70467919
0.6841987
0.68513269
0.83234306
0.81701915
0.72608665
0.71509158
0.71091485
0.70506057
0.68605681
0.69588587
0.82602676
0.80629968
0.72509302
0.71544567
0.71214129
0.70602854
0.67679973
0.65562379
0.74498119
0.74609499
0.70914051
0.6833221
0.70415858
0.69053152
0.67657459
0.65919731
0.74942002
0.73360727
0.70896394
0.68280891
0.6974079
0.69093745
0.67580476
0.66228578
0.74273931
0.73244163
0.70706577
0.68287212
0.69559537
0.69040362
0.67441671
0.67108542
0.74022428
0.72191351
0.70278609
0.67977204
0.69188029
0.68976285
0.67207966
0.65806765
0.80061541
0.71229909
0.70094287
0.69162058
0.69633589
0.68921139
0.66950537
0.66232433
0.82041231
0.70953858
0.70207338
0.68991986
0.6897778
0.68928946
0.66882382
0.67999033
0.81653593
0.70970166
0.70384585
0.68748513
0.68990325
0.68921325
0.67112512
0.69333446
0.83065975
0.70820373
0.70605978
0.68938419
0.69035014
0.68977818
0.66694434
0.63514705
0.72251209
0.76174273
0.73053499
0.73049132
0.66503189
0.67556674
0.66728206
0.6412651
0.7362247
0.75288474
0.72699029
0.67799023
0.66581569
0.67512734
0.66627258
0.64294392
0.74477745
0.74811636
0.72593607
0.69223388
0.66471168
0.67460282
0.67321245
0.68516925
0.74194919
0.74569115
0.72416359
0.68693201
0.66496031
0.67395169
0.66652494
0.68154523
0.74930586
0.74649987
0.75920431
0.68744547
0.6631607
0.6730481
0.66917388
0.66630237
0.75357684
0.75354693
0.71102873
0.66588163
0.66223586
0.67207775
0.66845201
0.66779117
0.71365303
0.75453836
0.70973381
0.66754012
0.66154956
0.67106157
0.66631341
0.66826271
0.72778455
0.74463821
0.70630698
0.6659245
0.6608934
0.6700356
0.6134938
0.63078469
0.58308226
0.78234977
1.864368
0.44855598
0.64974695
0.63601763
0.61238203
0.6207919
0.57468295
0.77305959
1.9924266
0.43945742
0.63974883
0.6344798
0.61202146
0.62108253
0.57656194
0.77003192
1.9407516
0.47710057
0.63176352
0.63240578
0.61391202
0.61971114
0.57838787
0.81085877
1.9194959
0.51475549
0.63215846
0.63030195
0.611228
0.6360847
0.58130344
0.7224263
1.7515533
0.534424
0.63752779
0.62930832
0.61270061
0.6462649
0.5840784
0.71241058
1.6612649
0.54597835
0.6392171
0.62930754
0.61487756
0.65430032
0.58545477
0.6618444
1.413903
0.56434297
0.63698069
0.62953984
0.61861014
0.65932043
0.58929583
0.65843634
1.1511597
0.57975739
0.63330675
0.6295045
0.62525869
0.53423615
1.3534221
7.7017323
7.1975825
0.79013241
0.60868611
0.64363101
0.62473222
0.53110517
0.79028759
7.8781662
7.4284837
0.73179476
0.60289398
0.64102141
0.61998745
0.53716975
0.91033807
6.8867606
7.4177045
0.75599929
0.59922036
0.63510209
0.61329727
0.54505696
0.93617749
5.1838883
7.686188
0.78322005
0.60245086
0.63221797
0.60939521
0.54751613
0.92385881
3.9453769
6.6323585
0.78832061
0.61262409
0.62765183
0.60556108
0.55325576
0.90982925
3.1255012
5.5605426
0.78631652
0.61285428
0.62425632
0.59455964
0.56353583
0.66710644
3.5491272
3.8094781
0.7366886
0.61793044
0.62068215
0.58150073
0.57124319
0.53608351
3.9325287
3.1868574
0.66947327
0.61812208
0.61584557
0.61186831
-0.66163897
15.715391
61.479307
55.714601
8.3306336
0.025785307
0.69569018
0.47935632
-0.93586993
19.37509
61.027152
55.460423
10.711175
-0.19585503
0.63455902
0.38043334
-0.29551638
16.113811
60.453767
55.710738
10.419636
0.18315395
0.58320132
0.30539471
0.11947121
18.9353
59.489998
55.69887
11.538346
0.52001327
0.53878911
0.26221899
0.35078303
14.410345
58.86852
56.065788
10.689789
0.80311011
0.49124007
0.21579316
0.60830121
15.791326
58.935015
55.015513
9.2945744
1.005385
0.45950425
0.16819321
1.0103899
14.919527
55.439456
55.628619
6.2956432
1.1076447
0.478806
0.22477492
1.5376096
14.936561
39.350571
55.94602
4.9835853
1.2139108
0.53561178
0.54449154
0.0077367774
3.010621
48.505405
63.552732
2.1342748
0.4992457
0.59595596
0.53761224
-0.14591931
4.0078127
47.871029
62.738659
4.3165246
0.35646627
0.57102721
0.46968673
0.00028154531
4.0100811
51.17204
62.531242
3.439587
0.50260007
0.5541046
0.38711521
0.13105852
5.4089731
47.987345
61.721484
2.4593869
0.58660624
0.53898386
0.27525117
0.24498238
5.5384037
40.5818
60.569763
1.2578969
0.58354402
0.49934479
0.15422748
0.35524915
6.5175616
37.807219
57.361189
2.4943677
0.56784294
0.46462822
0.078431046
0.47691889
6.84025
22.977403
44.474109
4.1182997
0.63369248
0.44817448
0.080480305
0.73726207
8.1989716
17.998124
34.000605
4.1803377
0.76670044
0.47628544
0.57268858
0.3877041
0.52384724
4.6068722
9.8963752
0.5075861
0.6437957
0.65575711
0.56754443
0.38861056
0.66345884
4.3951876
10.691269
0.77244894
0.66412832
0.62862589
0.55525589
0.38767114
0.73199557
4.670894
9.8229014
0.85567132
0.56164754
0.69645275
0.528007
0.38749129
0.95825059
5.0146139
11.518465
0.95975001
0.57466705
0.63576569
0.48182707
0.37940359
0.71793501
5.3394648
6.6794675
1.2983466
0.61936573
0.64532748
0.41724934
0.35008329
0.40696389
6.7040252
5.7844794
1.1352709
0.67338481
0.647737
0.34733966
0.32110009
0.67725223
9.3962671
4.476398
1.0690712
0.72732219
0.64898193
0.29914009
0.32781686
0.89136316
3.6707043
3.0385385
1.2143358
0.74472952
0.63723134
0.59878085
0.44015535
0.67613453
1.3676258
1.4382893
0.6087671
0.64434504
0.54446945
0.5938732
0.43252562
0.48894183
1.5268506
1.5279421
0.61913042
0.64440486
0.5447621
0.59332606
0.43022551
0.53885641
1.1505704
1.4347979
0.63394063
0.64000051
0.58115507
0.58464628
0.43224026
0.62103106
1.1330264
1.3894007
0.65099797
0.62243061
0.56696469
0.57306792
0.43807107
0.67061632
0.68775263
1.4772059
0.6846655
0.72079244
0.6059333
0.55452136
0.44336547
0.67055042
0.67143048
1.2420668
0.71593927
0.73568836
0.57452427
0.53092016
0.44678079
0.65422024
0.82011346
1.355699
0.77501322
0.73861713
0.63292847
0.50647917
0.45501291
0.63518347
0.84950964
0.80250952
0.78522864
0.83371535
0.54808462
0.59361016
0.5375036
0.50624047
0.55984564
0.73967849
0.92116733
0.72622747
0.53834542
0.60583484
0.52768454
0.50799035
0.54848688
0.67742579
0.76395745
0.92953704
0.53935188
0.58313494
0.52899888
0.50905305
0.55285132
0.67303467
0.79461878
0.58366627
0.57217946
0.58132099
0.51504814
0.50981797
0.55806785
0.69399497
0.76604559
0.60667227
0.56525955
0.5775797
0.50988251
0.51007408
0.56927559
0.66716805
0.72641845
0.61391405
0.59459244
0.57125106
0.50529905
0.5112376
0.57642012
0.64392209
0.9827996
0.69951229
0.5649211
0.5619691
0.50126575
0.51564795
0.56104211
0.65066212
0.86062189
0.72666993
0.5676479
0.54947474
0.49863334
0.52043737
0.5654322
0.63141416
0.58119214
0.70860234
0.57111197
0.58247194
0.55065151
0.55654061
0.52045299
0.57550288
0.41775507
0.53210892
0.531747
0.58425001
0.54657031
0.54962707
0.51829008
0.57045519
0.40801254
0.51839903
0.51960192
0.58072464
0.55596027
0.55003679
0.51627572
0.58235135
0.36467873
0.51681368
0.52048701
0.58170472
0.54016361
0.55100989
0.5181034
0.5699057
1.2311607
0.51033311
0.51880427
0.58136682
0.53791819
0.55122742
0.52688696
0.56514109
0.4967526
0.54765038
0.52253455
0.57934376
0.53657786
0.55071833
0.53369855
0.56450551
1.0273234
0.64766509
0.53408099
0.57631715
0.53523505
0.54943519
0.53814037
0.55683169
0.8569169
0.64035514
0.54376064
0.57005037
0.53334187
0.54760858
0.54044677
0.55289351
0.8268993
0.65531032
0.54722957
0.56229651
0.54895457
0.54436212
0.5125451
0.52820798
0.49177397
0.53065972
0.53082178
0.56136902
0.55189341
0.53079825
0.51497145
0.52809045
0.48775002
0.53513594
0.51659763
0.57379111
0.55198171
0.53024574
0.51529272
0.52813398
0.47994239
0.51783488
0.51690063
0.56153036
0.53688232
0.52980287
0.51279112
0.53135387
0.47744646
0.52347411
0.51684762
0.56113585
0.53427444
0.52921715
0.51459637
0.52568216
0.9967863
0.51877882
0.51877031
0.56002157
0.53264219
0.52856992
0.51720267
0.52102849
0.55546372
0.54223237
0.52252487
0.55926109
0.53105236
0.52851566
0.51974004
0.52111792
0.65928594
0.54681628
0.52559384
0.55604647
0.52933812
0.52756191
0.52025217
0.51803717
0.53935118
0.54453313
0.52676511
0.52710718
0.53629584
0.52464747
0.50802545
0.50171376
0.48639305
0.51039767
0.49185875
0.52603457
0.54086183
0.51605422
0.50579996
0.5017289
0.48281789
0.49953282
0.49433568
0.55831846
0.53469881
0.51635175
0.50576347
0.50168187
0.48102166
0.49804808
0.49095884
0.53265233
0.52872791
0.5148456
0.50110601
0.50177296
0.47755729
0.53263498
0.49172075
0.53396611
0.5239671
0.51340034
0.50211124
0.50274377
0.47925111
0.51687467
0.49444109
0.53361308
0.52151205
0.51257472
0.50251288
0.50057632
0.57439115
0.51579084
0.49688609
0.53499017
0.52033943
0.51189117
0.50358806
0.50118487
0.53335253
0.52582884
0.50021493
0.53299834
0.51940898
0.51140322
0.50477018
0.50218992
0.52769916
0.52169869
0.50294159
0.4901142
0.52545279
0.51049655
0.48717565
0.47958351
0.47584659
0.50864671
0.46970931
0.49012829
0.52985113
0.51669512
0.48349124
0.47934076
0.47214737
0.49050845
0.48322534
0.51491782
0.51819559
0.49662582
0.48314386
0.47911831
0.47178029
0.49049124
0.47721164
0.50717643
0.52388169
0.49637238
0.49250443
0.47899235
0.47113058
0.51432503
0.47428036
0.51002231
0.50229832
0.49341636
0.48142007
0.47992119
0.46934366
0.49881218
0.47724182
0.5088683
0.50052315
0.49256514
0.48142411
0.47953681
0.47365036
0.49375803
0.47865587
0.5093231
0.49837907
0.49131822
0.48192237
0.47948867
0.48676296
0.49674439
0.48030231
0.50853961
0.49724414
0.49081401
0.48269339
0.47976889
0.47526862
0.49357895
0.48271856
0.48487214
0.49813903
0.48496477
0.4685705
0.45691762
0.45640191
0.49077644
0.48940079
0.48497087
0.49942148
0.49456164
0.46524755
0.45654669
0.44898268
0.46826187
0.47449799
0.48524599
0.49362602
0.47215255
0.46529679
0.45645411
0.44762531
0.46886459
0.47775271
0.50032172
0.50722754
0.47198852
0.46458573
0.45593766
0.47004109
0.46598878
0.44770447
0.48019942
0.4784398
0.46669684
0.48082973
0.45981276
0.44885203
0.46434823
0.44931574
0.48090329
0.47673358
0.46602948
0.45137851
0.47097411
0.44926198
0.46252129
0.45025393
0.48066686
0.47386395
0.4643407
0.45173497
0.45126041
0.44973188
0.46065833
0.45083596
0.48081375
0.47176448
0.46296276
0.45202879
0.45646632
0.4500167
0.45934729
0.45187727
0.47474661
0.46390449
0.45819121
0.42997879
0.4256627
0.42853329
0.46708017
0.47433633
0.47345524
0.46147901
0.47049847
0.42714965
0.42532377
0.41911575
0.4441232
0.45506249
0.47159071
0.45987574
0.44436972
0.42667049
0.42527008
0.41755752
0.43612257
0.4541227
0.49082259
0.47639525
0.43949876
0.42553652
0.42387721
0.44456294
0.43095543
0.42644129
0.4870388
0.45598487
0.43747477
0.45486836
0.42494587
0.42202849
0.43003054
0.42559184
0.47927537
0.45247049
0.43595615
0.42545077
0.4485797
0.42080962
0.42823376
0.42468211
0.47384579
0.44864838
0.43323395
0.42383778
0.42583411
0.41982889
0.42617895
0.42268497
0.46791261
0.44405917
0.43013175
0.42168782
0.42132162
0.41765125
0.4243408
0.42000576
0.4347047
0.42825914
0.4260756
0.39073605
0.39066485
0.3913788
0.42951819
0.41542031
0.435813
0.43852081
0.44103796
0.38816342
0.39058943
0.38718299
0.41309299
0.4020566
0.43843816
0.43839406