/*--------------------------------*- C++ -*----------------------------------*\
  =========                 |
  \\      /  F ield         | OpenFOAM: The Open Source CFD Toolbox
   \\    /   O peration     | Website:  https://openfoam.org
    \\  /    A nd           | Version:  13
     \\/     M anipulation  |
\*---------------------------------------------------------------------------*/
FoamFile
{
    format      ascii;
    class       surfaceScalarField;
    location    "0.07";
    object      phi;
}
// * * * * * * * * * * * * * * * * * * * * * * * * * * * * * * * * * * * * * //

dimensions      [0 3 -1 0 0 0 0];

internalField   nonuniform List<scalar> 
150720
(
1.563685e-11
2.6751815e-09
9.0332597e-10
2.2376305e-16
-1.681525e-11
2.6374807e-09
9.8911599e-10
-1.8179128e-11
2.6417954e-09
9.5371308e-10
4.0337687e-15
2.6431268e-09
9.3283462e-10
1.8186835e-11
2.6431264e-09
9.3283532e-10
1.6821488e-11
2.6417947e-09
9.5371521e-10
-1.5633492e-11
2.63748e-09
9.8911954e-10
2.675181e-09
9.033297e-10
3.8839538e-16
-4.3935161e-11
4.1603748e-09
2.018845e-09
1.5513094e-16
-1.0062644e-10
3.9984602e-09
2.155815e-09
-6.8640505e-11
3.988949e-09
2.0809637e-09
9.352124e-15
3.9949691e-09
2.039611e-09
6.8658187e-11
3.9949683e-09
2.0396126e-09
1.0064089e-10
3.9889468e-09
2.0809685e-09
4.3944073e-11
3.998457e-09
2.1558231e-09
4.1603725e-09
2.0188542e-09
1.6123318e-15
-7.9063762e-11
4.8595716e-09
2.7059289e-09
8.2516064e-17
-1.4514189e-10
4.5620828e-09
2.8285175e-09
-9.4729146e-11
4.5323096e-09
2.7322886e-09
1.2833951e-14
4.5438206e-09
2.6824685e-09
9.475346e-11
4.5438192e-09
2.6824705e-09
1.451621e-10
4.5323056e-09
2.7322945e-09
7.9076407e-11
4.5620767e-09
2.828528e-09
4.859566e-09
2.7059416e-09
3.2648097e-15
-9.4915126e-11
5.0329554e-09
3.113552e-09
2.0836582e-17
-1.6008762e-10
4.6265054e-09
3.1927706e-09
-1.0346889e-10
4.5807764e-09
3.0869351e-09
1.5069208e-14
4.5968354e-09
3.0355219e-09
1.0349752e-10
4.5968335e-09
3.0355239e-09
1.6011182e-10
4.5807707e-09
3.0869412e-09
9.4930933e-11
4.6264967e-09
3.1927816e-09
5.0329459e-09
3.1135665e-09
5.1955142e-15
-9.9532665e-11
4.8707229e-09
3.3197445e-09
-3.7390904e-17
-1.5878909e-10
4.3954321e-09
3.348309e-09
-1.0283711e-10
4.3416139e-09
3.2411898e-09
1.6460227e-14
4.3598439e-09
3.1921173e-09
1.028685e-10
4.3598416e-09
3.1921192e-09
1.5881608e-10
4.341607e-09
3.2411955e-09
9.955118e-11
4.3954215e-09
3.3483194e-09
4.8707098e-09
3.3197593e-09
7.305289e-15
-9.5713126e-11
4.5099934e-09
3.3803807e-09
-1.0552081e-16
-1.4814204e-10
4.008769e-09
3.36303e-09
-9.6916151e-11
3.9540614e-09
3.2602646e-09
1.7297506e-14
3.971296e-09
3.2155524e-09
9.6949272e-11
3.9712935e-09
3.2155541e-09
1.48171e-10
3.9540537e-09
3.2602696e-09
9.5733994e-11
4.0087572e-09
3.3630393e-09
4.5099776e-09
3.3803948e-09
9.528805e-15
-8.5431315e-11
4.0476674e-09
3.3376543e-09
-1.9745702e-16
-1.3248564e-10
3.5610045e-09
3.2847156e-09
-8.8065913e-11
3.5096389e-09
3.1898996e-09
1.7780054e-14
3.5227065e-09
3.1504027e-09
8.8100103e-11
3.5227038e-09
3.1504041e-09
1.3251602e-10
3.5096308e-09
3.1899038e-09
8.5454253e-11
3.5609924e-09
3.2847234e-09
4.0476498e-09
3.337667e-09
1.1823057e-14
-6.8654311e-11
3.2348408e-09
-2.7567296e-16
3.5373366e-09
-1.1601082e-10
3.1558591e-09
3.1083574e-09
-7.8456474e-11
3.0700739e-09
3.0578661e-09
1.8011274e-14
3.0357237e-09
3.0643637e-09
7.849134e-11
3.0357249e-09
3.064361e-09
1.1604243e-10
3.0700773e-09
3.0578578e-09
6.8678904e-11
3.1558654e-09
3.108346e-09
3.2348519e-09
1.3949358e-14
3.5373182e-09
4.4614762e-11
4.4260406e-10
4.1610686e-10
2.9283146e-16
3.7458155e-11
4.6270683e-10
5.3356577e-10
1.8742132e-11
4.4393236e-10
5.2849674e-10
9.1711321e-15
4.3904302e-10
5.1252457e-10
-1.8724874e-11
4.3904257e-10
5.1252679e-10
-3.744441e-11
4.4393099e-10
5.2850375e-10
-4.4607723e-11
4.62706e-10
5.3357685e-10
4.4260458e-10
4.1611686e-10
5.3652716e-16
8.9797463e-11
1.1631038e-09
1.2085471e-09
6.167839e-16
7.1969004e-11
1.1826779e-09
1.4536724e-09
3.3710412e-11
1.1348965e-09
1.4282582e-09
2.3770166e-14
1.1241232e-09
1.3882175e-09
-3.3665637e-11
1.1241218e-09
1.3882227e-09
-7.1932866e-11
1.1348918e-09
1.4282749e-09
-8.9777665e-11
1.182674e-09
1.4536999e-09
1.1631026e-09
1.2085746e-09
3.95308e-15
1.0838337e-10
1.8743135e-09
1.8863348e-09
1.0439471e-15
8.1711043e-11
1.8626431e-09
2.1752246e-09
3.5799274e-11
1.7858578e-09
2.127239e-09
3.4737942e-14
1.7707624e-09
2.0715938e-09
-3.5733623e-11
1.7707599e-09
2.0716008e-09
-8.1657116e-11
1.7858487e-09
2.1272611e-09
-1.0835198e-10
1.8626343e-09
2.1752624e-09
1.8743077e-09
1.8863754e-09
9.1394103e-15
1.1042307e-10
2.4557889e-09
2.421652e-09
1.5486884e-15
7.7578397e-11
2.3918217e-09
2.6964366e-09
3.1331119e-11
2.2909107e-09
2.6281295e-09
4.2642433e-14
2.273445e-09
2.5641277e-09
-3.1250221e-11
2.2734414e-09
2.5641352e-09
-7.7510814e-11
2.2908971e-09
2.6281535e-09
-1.1038136e-10
2.3918073e-09
2.6964791e-09
2.4557764e-09
2.4217009e-09
1.5425698e-14
1.0314201e-10
2.860187e-09
2.8122023e-09
2.0832584e-15
6.7470727e-11
2.7368713e-09
3.0389308e-09
2.4503388e-11
2.6201609e-09
2.9549069e-09
4.8142348e-14
2.6019005e-09
2.8881171e-09
-2.4411671e-11
2.601896e-09
2.8881244e-09
-6.7392857e-11
2.6201433e-09
2.9549304e-09
-1.0309121e-10
2.7368514e-09
3.0389737e-09
2.860167e-09
2.8122551e-09
2.2347268e-14
9.1339091e-11
3.0839918e-09
3.0652342e-09
2.598989e-15
5.5618059e-11
2.9061314e-09
3.2294909e-09
1.7454918e-11
2.7832709e-09
3.1353177e-09
5.1856572e-14
2.7651424e-09
3.0697136e-09
-1.7355662e-11
2.7651372e-09
3.0697204e-09
-5.5532518e-11
2.7832504e-09
3.1353393e-09
-9.1280329e-11
2.9061071e-09
3.2295314e-09
3.0839645e-09
3.0652873e-09
2.9591677e-14
7.7800615e-11
3.1492421e-09
3.1946003e-09
3.0579805e-15
4.3844664e-11
2.9281894e-09
3.2966136e-09
1.1077743e-11
2.8083193e-09
3.1976182e-09
5.4289409e-14
2.7907593e-09
3.1358092e-09
-1.0973244e-11
2.7907537e-09
3.1358152e-09
-4.3753433e-11
2.8082972e-09
3.1976372e-09
-7.7734954e-11
2.9281621e-09
3.2966499e-09
3.1492086e-09
3.1946511e-09
3.6951127e-14
6.4330572e-11
3.210104e-09
3.4602593e-15
3.1096449e-09
3.310196e-11
3.2625422e-09
2.8527348e-09
5.7310935e-12
3.1633495e-09
2.7424146e-09
5.5794601e-14
3.1070522e-09
2.725106e-09
-5.6222166e-12
3.1070573e-09
2.7250993e-09
-3.3006369e-11
3.1633656e-09
2.7423931e-09
-6.4258563e-11
3.2625735e-09
2.8527061e-09
3.2101507e-09
4.3858664e-14
3.1096074e-09
3.6562549e-11
9.3709709e-11
2.8583435e-10
2.4927662e-16
3.7779188e-11
1.2361141e-10
4.0873771e-10
2.0434767e-11
1.1829302e-10
4.2754814e-10
1.3982954e-14
1.1365469e-10
4.1929066e-10
-2.0408484e-11
1.136538e-10
4.1929546e-10
-3.7758831e-11
1.1829118e-10
4.2756292e-10
-3.6552837e-11
1.2361084e-10
4.0876002e-10
9.3710559e-11
2.8585312e-10
3.4734776e-16
8.4100741e-11
3.6915486e-10
8.4900031e-10
9.4133201e-16
8.8829647e-11
4.3722651e-10
1.1353284e-09
4.7805596e-11
4.1677652e-10
1.1707988e-09
3.739747e-14
4.0150691e-10
1.1481335e-09
-4.7735297e-11
4.0150424e-10
1.148145e-09
-8.877421e-11
4.167703e-10
1.1708347e-09
-8.4072028e-11
4.3722356e-10
1.135385e-09
3.6915543e-10
8.4905263e-10
5.1074335e-15
1.1513527e-10
7.6194327e-10
1.3784091e-09
1.9863058e-15
1.202874e-10
8.5402232e-10
1.7532767e-09
6.3973444e-11
8.1196842e-10
1.7883611e-09
5.5937281e-14
7.8349369e-10
1.7535246e-09
-6.3867987e-11
7.8348892e-10
1.75354e-09
-1.202026e-10
8.1195615e-10
1.7884098e-09
-1.1508822e-10
8.5401504e-10
1.7533566e-09
7.6194112e-10
1.3784882e-09
1.3231106e-14
1.3183282e-10
1.1971863e-09
1.8545729e-09
3.2178717e-15
1.3465409e-10
1.2897448e-09
2.2578929e-09
7.0691189e-11
1.222685e-09
2.2813759e-09
6.9970188e-14
1.1812464e-09
2.2369963e-09
-7.0558791e-11
1.1812395e-09
2.2370134e-09
-1.3454564e-10
1.222666e-09
2.2814305e-09
-1.3176868e-10
1.2897314e-09
2.2579858e-09
1.1971786e-09
1.8546712e-09
2.3557744e-14
1.3759592e-10
1.6142159e-09
2.2575723e-09
4.5001843e-15
1.3649981e-10
1.6844676e-09
2.645304e-09
7.069582e-11
1.5919181e-09
2.6514779e-09
8.0177397e-14
1.5394604e-09
2.6005187e-09
-7.0543508e-11
1.5394517e-09
2.6005359e-09
-1.3637282e-10
1.5918925e-09
2.6515332e-09
-1.3751627e-10
1.6844471e-09
2.6454015e-09
1.6142003e-09
2.257682e-09
3.5181821e-14
1.3468431e-10
1.9711914e-09
2.5735687e-09
5.7254826e-15
1.293603e-10
2.0014263e-09
2.9178563e-09
6.6164402e-11
1.8852169e-09
2.9052147e-09
8.7334366e-14
1.824635e-09
2.8506161e-09
-6.5997829e-11
1.824625e-09
2.8506323e-09
-1.2921905e-10
1.8851858e-09
2.9052672e-09
-1.3459082e-10
2.0013984e-09
2.9179519e-09
1.9711663e-09
2.573683e-09
4.7436014e-14
1.2437298e-10
2.2460053e-09
2.7954065e-09
6.8162918e-15
1.1591802e-10
2.2228051e-09
3.0836897e-09
5.8768852e-11
2.0867013e-09
3.053283e-09
9.2156122e-14
2.0214389e-09
2.997682e-09
-5.8592397e-11
2.0214281e-09
2.9976966e-09
-1.1576601e-10
2.0866663e-09
3.0533304e-09
-1.2426737e-10
2.2227708e-09
3.0837788e-09
2.2459705e-09
2.7955196e-09
5.9864421e-14
1.0905728e-10
2.9239924e-09
7.7000882e-15
2.4230519e-09
9.9355844e-11
3.1569834e-09
2.3380654e-09
5.029589e-11
3.1104035e-09
2.1887073e-09
9.5185976e-14
3.0560256e-09
2.1226662e-09
-5.0112842e-11
3.0560384e-09
2.1226551e-09
-9.9195931e-11
3.1104448e-09
2.1886702e-09
-1.0894051e-10
3.1570629e-09
2.338026e-09
2.9241e-09
7.1532134e-14
2.4230092e-09
1.723978e-11
4.1013935e-11
2.2758043e-10
2.0531826e-16
2.187317e-11
5.6583896e-11
3.4752043e-10
1.3094953e-11
5.4044825e-11
3.8228153e-10
1.9693377e-14
4.9135376e-11
3.8323054e-10
-1.3058275e-11
4.9134197e-11
3.8323923e-10
-2.1845781e-11
5.4043036e-11
3.8230739e-10
-1.7227768e-11
5.6584425e-11
3.4755758e-10
4.101564e-11
2.2760976e-10
-4.6798614e-17
4.7916029e-11
1.5394739e-10
6.8814929e-10
1.5449309e-15
6.0198921e-11
2.0195215e-10
9.7767722e-10
3.5781421e-11
1.92868e-10
1.0563931e-09
5.3262934e-14
1.7698387e-10
1.0560131e-09
-3.5682114e-11
1.7698032e-10
1.0560343e-09
-6.0122999e-11
1.9286157e-10
1.0564571e-09
-4.7879154e-11
2.0195231e-10
9.7777332e-10
1.5395061e-10
6.8823273e-10
5.7766976e-15
7.3284208e-11
3.3137117e-10
1.1276976e-09
3.5554768e-15
9.0631712e-11
4.1425722e-10
1.5236241e-09
5.3553951e-11
3.9407488e-10
1.6242319e-09
8.0406303e-14
3.6403975e-10
1.6199422e-09
-5.3403502e-11
3.640333e-10
1.6199709e-09
-9.0514061e-11
3.9406167e-10
1.6243203e-09
-7.3222329e-11
4.1425521e-10
1.5237619e-09
3.3137382e-10
1.127826e-09
1.6707531e-14
9.3139216e-11
5.5914178e-10
1.5336572e-09
5.8693327e-15
1.1255822e-10
6.6842052e-10
1.9843106e-09
6.6076146e-11
6.3233293e-10
2.0895999e-09
1.0139083e-13
5.8726368e-10
2.0797471e-09
-6.5885631e-11
5.872543e-10
2.0797794e-09
-1.1240608e-10
6.3231175e-10
2.0897009e-09
-9.305329e-11
6.6841414e-10
1.9844741e-09
5.5914096e-10
1.5338196e-09
3.1129705e-14
1.0707643e-10
8.1478988e-10
1.8948396e-09
8.1910771e-15
1.2604059e-10
9.3535436e-10
2.359406e-09
7.3537836e-11
8.7954155e-10
2.456772e-09
1.1694813e-13
8.2052486e-10
2.4406784e-09
-7.331711e-11
8.2051288e-10
2.4407114e-09
-1.2586081e-10
8.7951217e-10
2.4568765e-09
-1.0696819e-10
9.3534164e-10
2.3595814e-09
8.1478261e-10
1.8950245e-09
4.7643092e-14
1.1485e-10
1.0727567e-09
2.2007416e-09
1.0303961e-14
1.3155912e-10
1.1870172e-09
2.6494843e-09
7.6441865e-11
1.1093662e-09
2.7305074e-09
1.2801915e-13
1.0390854e-09
2.7083694e-09
-7.6199157e-11
1.0390714e-09
2.7084009e-09
-1.3135771e-10
1.1093293e-09
2.7306086e-09
-1.1472154e-10
1.186997e-09
2.6496604e-09
1.0727405e-09
2.2009384e-09
6.5151729e-14
1.162981e-10
1.3091591e-09
2.442694e-09
1.2061987e-14
1.3010904e-10
1.3995451e-09
2.8573509e-09
7.5558357e-11
1.300353e-09
2.9168468e-09
1.3554223e-13
1.2226699e-09
2.8895204e-09
-7.5300257e-11
1.2226546e-09
2.8895493e-09
-1.2989107e-10
1.3003102e-09
2.9169403e-09
-1.1615177e-10
1.3995173e-09
2.8575191e-09
1.3091324e-09
2.4428931e-09
8.2871199e-14
1.1188146e-10
2.6142874e-09
1.3263657e-14
1.5069694e-09
1.2338167e-10
2.9885696e-09
1.5564587e-09
7.1913662e-11
3.0230846e-09
1.4391399e-09
1.4027847e-13
2.9919314e-09
1.3585375e-09
-7.1645266e-11
2.9919569e-09
1.3585216e-09
-1.2315135e-10
3.0231678e-09
1.4390933e-09
-1.1171871e-10
2.9887237e-09
1.5564239e-09
2.6144813e-09
9.9376916e-14
1.506933e-09
1.070405e-11
2.1272418e-11
1.9560368e-10
2.8324898e-16
1.3852532e-11
3.3664593e-11
3.1070735e-10
8.4552497e-12
3.237654e-11
3.5530227e-10
2.7745774e-14
2.7679979e-11
3.6397806e-10
-8.4043096e-12
2.7678446e-11
3.6399284e-10
-1.381595e-11
3.2374379e-11
3.5534465e-10
-1.0689331e-11
3.3665281e-11
3.1076568e-10
2.1273829e-11
1.9564732e-10
-7.2447584e-16
2.918007e-11
8.6549725e-11
5.9368882e-10
3.0877657e-15
3.8803454e-11
1.2287403e-10
8.7884439e-10
2.4139688e-11
1.1732479e-10
9.8610863e-10
7.5253936e-14
1.0207737e-10
1.0056802e-09
-2.4000961e-11
1.0207246e-10
1.0057165e-09
-3.8700931e-11
1.1731664e-10
9.8621477e-10
-2.9133418e-11
1.2287393e-10
8.7899715e-10
8.6551314e-11
5.9381496e-10
6.8674759e-15
4.5240677e-11
1.9066451e-10
9.7833471e-10
7.3758304e-15
6.032213e-11
2.5367983e-10
1.3777369e-09
3.7858747e-11
2.4063393e-10
1.5233862e-09
1.1387208e-13
2.1186294e-10
1.5479015e-09
-3.7647769e-11
2.118537e-10
1.5479513e-09
-6.0162108e-11
2.4061681e-10
1.5235344e-09
-4.5161096e-11
2.5367664e-10
1.3779582e-09
1.9066361e-10
9.7853107e-10
2.154202e-14
5.9028854e-11
3.2569599e-10
1.3395846e-09
1.2269112e-14
7.8034654e-11
4.1204177e-10
1.8069428e-09
4.9169871e-11
3.8813887e-10
1.9709597e-09
1.4387857e-13
3.4501281e-10
1.9956232e-09
-4.890194e-11
3.4499906e-10
1.9956799e-09
-7.7826551e-11
3.88111e-10
1.9711313e-09
-5.8917015e-11
4.1203293e-10
1.8072082e-09
3.256894e-10
1.3398355e-09
4.1335921e-14
7.0411596e-11
4.8181983e-10
1.6682871e-09
1.707549e-14
9.1690767e-11
5.8368452e-10
2.1664841e-09
5.7862122e-11
5.4583347e-10
2.332906e-09
1.6619047e-13
4.8922749e-10
2.3541597e-09
-5.755107e-11
4.8920962e-10
2.3542181e-09
-9.1443803e-11
5.4579439e-10
2.3330858e-09
-7.0269418e-11
5.8366784e-10
2.1667721e-09
4.8180455e-10
1.6685758e-09
6.4204966e-14
7.8987274e-11
6.4727679e-10
1.9562761e-09
2.1299796e-14
1.0102045e-10
7.5390841e-10
2.4572272e-09
6.3828684e-11
6.9980218e-10
2.6137304e-09
1.8204358e-13
6.320216e-10
2.6292219e-09
-6.3486256e-11
6.3200039e-10
2.6292784e-09
-1.0074297e-10
6.9975265e-10
2.613907e-09
-7.8817388e-11
7.5388252e-10
2.4575201e-09
6.4725045e-10
1.9565866e-09
8.8499358e-14
8.4245945e-11
8.0911764e-10
2.1965826e-09
2.4619826e-14
1.0606427e-10
9.0810395e-10
2.681337e-09
6.7171024e-11
8.3702929e-10
2.8185129e-09
1.92711e-13
7.6152467e-10
2.8269956e-09
-6.6806768e-11
7.615012e-10
2.8270479e-09
-1.0576342e-10
8.3697114e-10
2.8186785e-09
-8.4051476e-11
9.0806882e-10
2.6816209e-09
8.0907853e-10
2.1969006e-09
1.1299609e-13
8.5871741e-11
2.3837629e-09
2.6525887e-14
9.5374389e-10
1.0721622e-10
2.8427682e-09
1.0325608e-09
6.8164429e-11
2.9529336e-09
9.4623211e-10
1.9926946e-13
2.9541977e-09
8.6722348e-10
-6.7785825e-11
2.9542445e-09
8.6719876e-10
-1.0689796e-10
2.953083e-09
9.4616806e-10
-8.5654886e-11
2.8430324e-09
1.032517e-09
2.3840764e-09
1.3559114e-13
9.5369294e-10
6.2581323e-12
1.3022045e-11
1.76323e-10
5.0496655e-16
8.2216852e-12
2.1782506e-11
2.8696129e-10
5.0621648e-12
2.1061501e-11
3.3740029e-10
3.9469114e-14
1.7115557e-11
3.518852e-10
-4.9910998e-12
1.7113534e-11
3.5190987e-10
-8.1730508e-12
2.1058e-11
3.374686e-10
-6.24058e-12
2.1781385e-11
2.8705182e-10
1.3021027e-11
1.7638744e-10
-1.7222509e-15
1.7374828e-11
5.2195704e-11
5.371338e-10
6.535463e-15
2.3842828e-11
7.9202294e-11
8.149566e-10
1.5260828e-11
7.6120719e-11
9.3963141e-10
1.070691e-13
6.3345739e-11
9.7460376e-10
-1.5066314e-11
6.3338708e-11
9.7466466e-10
-2.3705061e-11
7.6107864e-11
9.3980365e-10
-1.7317208e-11
7.9195342e-11
8.1519534e-10
5.2188283e-11
5.3732195e-10
8.5451121e-15
2.7259793e-11
1.1538771e-10
8.8786677e-10
1.6148985e-14
3.8016855e-11
1.6381623e-10
1.2823659e-09
2.4876073e-11
1.5627868e-10
1.456369e-09
1.6203713e-13
1.3217928e-10
1.503782e-09
-2.4579518e-11
1.3216545e-10
1.5038661e-09
-3.7800426e-11
1.5625208e-10
1.4566111e-09
-2.7159919e-11
1.6379928e-10
1.2827138e-09
1.15369e-10
8.8816178e-10
2.8653739e-14
3.6136546e-11
1.9875316e-10
1.2200553e-09
2.7291181e-14
5.056479e-11
2.6717431e-10
1.6891565e-09
3.3547298e-11
2.5279752e-10
1.8914584e-09
2.0471227e-13
2.166296e-10
1.9445155e-09
-3.317022e-11
2.166084e-10
1.9446119e-09
-5.0281956e-11
2.5275457e-10
1.8917405e-09
-3.5994592e-11
2.6714407e-10
1.6895761e-09
1.9871897e-10
1.2204347e-09
5.6199883e-14
4.4022768e-11
2.9689739e-10
1.5260817e-09
3.8343898e-14
6.1333887e-11
3.8063685e-10
2.0357105e-09
4.1053972e-11
3.5712558e-10
2.2488579e-09
2.3632433e-13
3.0954721e-10
2.3020597e-09
-4.0616043e-11
3.0951905e-10
2.3021598e-09
-6.0997063e-11
3.5706557e-10
2.2491558e-09
-4.3840725e-11
3.805913e-10
2.0361685e-09
2.9684481e-10
1.526521e-09
8.8203178e-14
5.0742907e-11
4.0323736e-10
1.7991451e-09
4.8119753e-14
7.0078395e-11
4.9550778e-10
2.3230208e-09
4.7197411e-11
4.6100493e-10
2.532732e-09
2.5858159e-13
4.0383174e-10
2.5818762e-09
-4.6715504e-11
4.0379773e-10
2.5819738e-09
-6.9699113e-11
4.6092896e-10
2.5330272e-09
-5.0523917e-11
4.9544644e-10
2.3234898e-09
4.0316488e-10
1.7996204e-09
1.2221623e-13
5.5969276e-11
5.1042069e-10
2.0333741e-09
5.5827356e-14
7.6650739e-11
6.0315942e-10
2.5530039e-09
5.1865437e-11
5.5676944e-10
2.7475337e-09
2.7327365e-13
4.927372e-10
2.7896823e-09
-5.1353384e-11
4.9269893e-10
2.7897734e-09
-7.6239088e-11
5.5668016e-10
2.747813e-09
-5.5717305e-11
6.0308368e-10
2.5534619e-09
5.1032784e-10
2.0338639e-09
1.5638404e-13
5.9273495e-11
2.2239068e-09
6.0190121e-14
6.1094311e-10
8.0971538e-11
2.7287959e-09
6.9543375e-10
5.5004673e-11
2.8979402e-09
6.3772969e-10
2.8197372e-13
2.9314284e-09
5.7022928e-10
-5.4473375e-11
2.9315103e-09
5.7018842e-10
-8.0535848e-11
2.8981947e-09
6.3763088e-10
-5.899168e-11
2.7292258e-09
6.9534611e-10
2.2243927e-09
1.8765472e-13
6.1083214e-10
3.9445961e-12
8.0736323e-12
1.6430396e-10
8.1415789e-16
5.0506374e-12
1.4547876e-11
2.7130737e-10
3.0574466e-12
1.4344707e-11
3.2504878e-10
5.7049022e-14
1.1342783e-11
3.4354282e-10
-2.9570824e-12
1.1339748e-11
3.4358425e-10
-4.9857492e-12
1.4337127e-11
3.2516014e-10
-3.9242334e-12
1.4539885e-11
2.7145042e-10
8.0649614e-12
1.644014e-10
-3.1582198e-15
1.0828137e-11
3.2919592e-11
5.0144569e-10
1.4017538e-14
1.4836359e-11
5.3023805e-11
7.7247245e-10
9.5787025e-12
5.1789971e-11
9.074438e-10
1.5447561e-13
4.2038796e-11
9.5333197e-10
-9.302817e-12
4.2027214e-11
9.5343449e-10
-1.4650911e-11
5.1763371e-11
9.077255e-10
-1.0758886e-11
5.2992078e-11
7.7285112e-10
3.2884673e-11
5.0173252e-10
1.0827539e-14
1.693905e-11
7.3357213e-11
8.3045461e-10
3.5485664e-14
2.3961778e-11
1.0985924e-10
1.2185077e-09
1.6053912e-11
1.0629046e-10
1.4097764e-09
2.3346192e-13
8.7853888e-11
1.4737874e-09
-1.5632702e-11
8.7830152e-11
1.4739294e-09
-2.3668968e-11
1.0623728e-10
1.4101735e-09
-1.6817462e-11
1.0979347e-10
1.2190609e-09
7.3283989e-11
8.3090633e-10
3.8674735e-14
2.2508895e-11
1.2708992e-10
1.1437528e-09
6.0856781e-14
3.2388838e-11
1.7955437e-10
1.6095814e-09
2.2242225e-11
1.7206793e-10
1.8358275e-09
2.945102e-13
1.4434906e-10
1.909968e-09
-2.1706603e-11
1.4431186e-10
1.9101313e-09
-3.2004768e-11
1.7198428e-10
1.8362917e-09
-2.2334616e-11
1.7944952e-10
1.6102499e-09
1.2697122e-10
1.1443355e-09
7.7375357e-14
2.7643011e-11
1.9091259e-10
1.4345295e-09
8.6504616e-14
4.0084078e-11
2.566192e-10
1.9462046e-09
2.7995144e-11
2.4361986e-10
2.1893949e-09
3.3936641e-13
2.0709197e-10
2.2669726e-09
-2.7373557e-11
2.0704178e-10
2.2671428e-09
-3.9625526e-11
2.4350538e-10
2.1898867e-09
-2.7417975e-11
2.5647483e-10
1.9469357e-09
1.9074605e-10
1.4352056e-09
1.2262054e-13
3.230815e-11
2.6091695e-10
1.6967229e-09
1.0968295e-13
4.6915452e-11
3.3564887e-10
2.2293838e-09
3.3152211e-11
3.1576186e-10
2.4743533e-09
3.7048822e-13
2.717726e-10
2.5499773e-09
-3.246921e-11
2.7171123e-10
2.5501441e-09
-4.6398331e-11
3.1561928e-10
2.4748425e-09
-3.2035829e-11
3.3546837e-10
2.2301337e-09
2.6070424e-10
1.6974555e-09
1.7081982e-13
3.6337375e-11
3.3276759e-10
1.9250576e-09
1.2849101e-13
5.2758829e-11
4.1138463e-10
2.4608467e-09
3.7574913e-11
3.8378185e-10
2.6946977e-09
3.9046882e-13
3.3436567e-10
2.7642737e-09
-3.685072e-11
3.3429583e-10
2.76443e-09
-5.2197279e-11
3.8361637e-10
2.6951625e-09
-3.6022392e-11
4.1117478e-10
2.4615806e-09
3.3251295e-10
1.9258136e-09
2.1919884e-13
3.9386961e-11
2.1150573e-09
1.3985367e-13
4.0209027e-10
5.7449228e-11
2.6432735e-09
4.7884472e-10
4.1123981e-11
2.8544682e-09
4.4357911e-10
4.0167562e-13
2.9152432e-09
3.9127312e-10
-4.0374603e-11
2.9153845e-09
3.9119791e-10
-5.6854771e-11
2.8548939e-09
4.4339736e-10
-3.9033541e-11
2.6439645e-09
4.7861485e-10
2.1158082e-09
2.6333679e-13
4.0180063e-10
2.5836869e-12
5.2360651e-12
1.5648233e-10
1.8760421e-15
3.2413537e-12
9.9614252e-12
2.6068828e-10
1.9319269e-12
1.01304e-11
3.162278e-10
8.4201926e-14
8.0144304e-12
3.3737611e-10
-1.7876627e-12
8.008803e-12
3.3744732e-10
-3.1546129e-12
1.0111964e-11
3.1641513e-10
-2.5618235e-12
9.9339445e-12
2.6092369e-10
5.2064743e-12
1.5663858e-10
-5.472753e-15
7.0248466e-12
2.151831e-11
4.7810728e-10
3.1314968e-14
9.5561341e-12
3.646371e-11
7.4343888e-10
6.1974879e-12
3.663827e-11
8.8429458e-10
2.2717182e-13
2.9752169e-11
9.3756455e-10
-5.7998257e-12
2.972952e-11
9.3774077e-10
-9.3064853e-12
3.6575449e-11
8.8476868e-10
-6.9471269e-12
3.636374e-11
7.4406197e-10
2.1410626e-11
4.7856789e-10
1.3353884e-14
1.0920329e-11
4.8269277e-11
7.927041e-10
7.9209273e-14
1.5498922e-11
7.5843985e-11
1.1745489e-09
1.055543e-11
7.5331847e-11
1.3760263e-09
3.4238248e-13
6.2276852e-11
1.4514757e-09
-9.9482477e-12
6.2229633e-11
1.4517199e-09
-1.5103394e-11
7.5209498e-11
1.3766946e-09
-1.0782414e-11
7.5645453e-11
1.1754582e-09
4.8053676e-11
7.9342919e-10
5.1675118e-14
1.4462719e-11
8.4161138e-11
1.093262e-09
1.3625871e-13
2.1097749e-11
1.2446575e-10
1.5543246e-09
1.4858552e-11
1.2223892e-10
1.7951597e-09
4.3071058e-13
1.0254901e-10
1.8841237e-09
-1.4087384e-11
1.0247448e-10
1.8844045e-09
-2.0577804e-11
1.2205105e-10
1.7959406e-09
-1.4263955e-11
1.2415983e-10
1.5554217e-09
8.3823505e-11
1.0941958e-09
1.058671e-13
1.7769234e-11
1.2723783e-10
1.373489e-09
1.9457631e-13
2.6381642e-11
1.7869865e-10
1.8833592e-09
1.9025249e-11
1.7361544e-10
2.1453748e-09
4.9477877e-13
1.4758373e-10
2.2404683e-09
-1.8132121e-11
1.4748283e-10
2.2407614e-09
-2.5760089e-11
1.733638e-10
2.1462019e-09
-1.7511258e-11
1.7829007e-10
1.8845566e-09
1.2677802e-10
1.37457e-09
1.6978127e-13
2.0866147e-11
1.7506236e-10
1.6277841e-09
2.4806445e-13
3.1300947e-11
2.3498627e-10
2.1626614e-09
2.2954136e-11
2.2597049e-10
2.4303451e-09
5.3827022e-13
1.9451916e-10
2.5254577e-09
-2.1975416e-11
1.9439554e-10
2.5257451e-09
-3.0599726e-11
2.2566298e-10
2.4311676e-09
-2.0552192e-11
2.3448963e-10
2.1638866e-09
1.7449099e-10
1.6289521e-09
2.3823412e-13
2.3679318e-11
2.2490688e-10
1.8512414e-09
2.9239126e-13
3.5788159e-11
2.8988366e-10
2.3938405e-09
2.6540964e-11
2.7615182e-10
2.6537635e-09
5.6506876e-13
2.4070469e-10
2.7440641e-09
-2.5506639e-11
2.405637e-10
2.7443335e-09
-3.5026935e-11
2.7580071e-10
2.654545e-09
-2.3313871e-11
2.8932054e-10
2.3950366e-09
2.2424124e-10
1.8524423e-09
3.0715225e-13
2.5961428e-11
2.0396371e-09
3.2053104e-13
2.7404509e-10
3.9714831e-11
2.5793211e-09
3.4008265e-10
2.9659893e-11
2.8192813e-09
3.2139367e-10
5.7885118e-13
2.9012782e-09
2.8375071e-10
-2.8593742e-11
2.901522e-09
2.8359881e-10
-3.8909187e-11
2.8199971e-09
3.2101297e-10
-2.5549365e-11
2.5804449e-09
3.3948031e-10
2.0408251e-09
3.7019984e-13
2.733047e-10
1.8052197e-12
3.6089713e-12
1.5106204e-10
6.0945737e-15
2.2670478e-12
7.1066287e-12
2.5311983e-10
1.3632691e-12
7.5208779e-12
3.096107e-10
1.2770975e-13
6.1144428e-12
3.3249723e-10
-1.1497693e-12
6.1014338e-12
3.3262336e-10
-2.1484699e-12
7.4743126e-12
3.0993952e-10
-1.7834196e-12
7.0265006e-12
2.5353214e-10
3.5255816e-12
1.5133883e-10
-9.2541127e-15
4.8419801e-12
1.4890037e-11
4.6191074e-10
7.3497945e-14
6.5997299e-12
2.6119568e-11
7.2266819e-10
4.3475461e-12
2.721377e-11
8.6685387e-10
3.4285981e-13
2.263303e-11
9.2505065e-10
-3.7592628e-12
2.258282e-11
9.2536151e-10
-6.2581729e-12
2.7059927e-11
8.6768197e-10
-4.7622166e-12
2.5842849e-11
7.2374966e-10
1.459342e-11
4.627225e-10
1.5333651e-14
7.4433099e-12
3.3503955e-11
7.6646546e-10
1.8141767e-13
1.0623921e-11
5.4516946e-11
1.1429709e-09
7.384067e-12
5.6019859e-11
1.3504601e-09
5.1466225e-13
4.7313422e-11
1.4336648e-09
-6.487703e-12
4.7210794e-11
1.4340943e-09
-1.0083447e-11
5.5726626e-11
1.3516236e-09
-7.3030114e-12
5.3983026e-11
1.1445376e-09
3.2920878e-11
7.6773154e-10
6.7182318e-14
9.7606508e-12
5.8611256e-11
1.0580849e-09
3.0911114e-13
1.4400732e-11
8.9788085e-11
1.5144134e-09
1.039388e-11
9.106881e-11
1.7641176e-09
6.447534e-13
7.7890962e-11
1.8632953e-09
-9.2590367e-12
7.7730876e-11
1.8637882e-09
-1.3691637e-11
9.0627368e-11
1.7654724e-09
-9.5606889e-12
8.8983137e-11
1.5162906e-09
5.7713475e-11
1.0597003e-09
1.4224569e-13
1.1903198e-11
8.8948724e-11
1.3308088e-09
4.3958169e-13
1.7991066e-11
1.2942466e-10
1.8376348e-09
1.3347144e-11
1.2966815e-10
2.1114194e-09
7.3731347e-13
1.1217767e-10
2.2187915e-09
-1.2037992e-11
1.119628e-10
2.2193047e-09
-1.7145516e-11
1.2908771e-10
2.1128491e-09
-1.1645204e-11
1.283692e-10
1.8396702e-09
8.7745873e-11
1.3326606e-09
2.3186652e-13
1.3919966e-11
1.2292216e-10
1.5793311e-09
5.5963804e-13
2.1397275e-11
1.7096466e-10
2.1136441e-09
1.6194883e-11
1.6931198e-10
2.3959036e-09
7.9813214e-13
1.480972e-10
2.5049349e-09
-1.4766857e-11
1.478357e-10
2.5054372e-09
-2.0446168e-11
1.686146e-10
2.39732e-09
-1.3606093e-11
1.6970262e-10
2.1157131e-09
1.2145152e-10
1.5813117e-09
3.2870194e-13
1.578714e-11
1.5872794e-10
1.7989886e-09
6.5983077e-13
2.4599764e-11
2.1200937e-10
2.3439831e-09
1.8877318e-11
2.0772769e-10
2.6210703e-09
8.3328077e-13
1.8373109e-10
2.7264742e-09
-1.7375977e-11
1.834344e-10
2.7269441e-09
-2.3570685e-11
2.0694345e-10
2.6224109e-09
-1.5420154e-11
2.1059912e-10
2.3459896e-09
1.570429e-10
1.8010039e-09
4.268935e-13
1.7331594e-11
1.9857369e-09
7.2475231e-13
1.9457183e-10
2.752254e-11
2.5309303e-09
2.5020922e-10
2.1306972e-11
2.7903259e-09
2.4289868e-10
8.4866933e-13
2.8881298e-09
2.1733788e-10
-1.9768327e-11
2.8885539e-09
2.1701952e-10
-2.6436255e-11
2.7915495e-09
2.42059e-10
-1.6915371e-11
2.5328033e-09
2.4871984e-10
1.9877087e-09
5.1745119e-13
1.9272652e-10
1.3469511e-12
2.7607712e-12
1.4693036e-10
2.3966249e-14
1.7646459e-12
5.3551993e-12
2.4734693e-10
1.1262101e-12
5.8680079e-12
3.0438113e-10
2.0255441e-13
4.9648584e-12
3.2845603e-10
-7.9406268e-13
4.9315457e-12
3.2868843e-10
-1.591028e-12
5.7431163e-12
3.0499337e-10
-1.3268554e-12
5.1264188e-12
2.4814155e-10
2.5207085e-12
1.4750716e-10
-1.5890782e-14
3.5577572e-12
1.1277081e-11
4.4964157e-10
1.9510387e-13
5.0080645e-12
1.9737599e-11
7.0683549e-10
3.4611092e-12
2.123288e-11
8.5303595e-10
5.3969315e-13
1.830003e-11
9.146369e-10
-2.5521625e-12
1.8175571e-11
9.1520934e-10
-4.517531e-12
2.0828173e-11
8.5456228e-10
-3.4903859e-12
1.8936657e-11
7.0891228e-10
1.0466109e-11
4.5127012e-10
1.6592631e-14
5.3842159e-12
2.5223465e-11
7.4668478e-10
4.5008076e-13
7.9188967e-12
4.1270657e-11
1.1189031e-09
5.7414759e-12
4.3728047e-11
1.3301423e-09
8.0509912e-13
3.8150059e-11
1.4187511e-09
-4.3657365e-12
3.7901898e-11
1.4195388e-09
-7.1559342e-12
4.2975102e-11
1.3322669e-09
-5.2791624e-12
3.9819465e-11
1.121778e-09
2.3666465e-11
7.4916708e-10
8.4934557e-14
6.9441518e-12
4.3950903e-11
1.0316711e-09
7.4229484e-13
1.0572014e-11
6.8084818e-11
1.4839714e-09
7.9338241e-12
7.114678e-11
1.739337e-09
1.0022498e-12
6.2681456e-11
1.8456955e-09
-6.2042162e-12
6.2302556e-11
1.846594e-09
-9.5848236e-12
7.004164e-11
1.7417865e-09
-6.8097579e-12
6.5990796e-11
1.4873442e-09
4.1600622e-11
1.0347703e-09
1.8613796e-13
8.3365465e-12
6.6537429e-11
1.2988508e-09
1.0349378e-12
1.3042641e-11
9.8324671e-11
1.8026889e-09
1.0045241e-11
1.0142708e-10
2.0841365e-09
1.138415e-12
9.0152261e-11
2.2002275e-09
-8.0645223e-12
8.9653324e-11
2.2011569e-09
-1.1879323e-11
1.0000834e-10
2.0866972e-09
-8.1754798e-12
9.5662506e-11
1.8062947e-09
6.3445799e-11
1.3023311e-09
3.088457e-13
9.6192188e-12
9.1849794e-11
1.5430995e-09
1.2999766e-12
1.5364583e-11
1.301762e-10
2.0760472e-09
1.2067498e-11
1.3265326e-10
2.3679745e-09
1.2233428e-12
1.1892893e-10
2.4870024e-09
-9.9235474e-12
1.1833193e-10
2.4879055e-09
-1.4069751e-11
1.3098543e-10
2.3704891e-09
-9.430153e-12
1.2706606e-10
2.07967e-09
8.8134486e-11
1.5467496e-09
4.4321336e-13
1.0796556e-11
1.1862167e-10
1.7599025e-09
1.5177202e-12
1.7552886e-11
1.6187047e-10
2.3055326e-09
1.398052e-11
1.6308274e-10
2.5942132e-09
1.267114e-12
1.4751106e-10
2.7106055e-09
-1.1744876e-11
1.4684386e-10
2.7114441e-09
-1.6165177e-11
1.612433e-10
2.5965733e-09
-1.057592e-11
1.5845847e-10
2.3090079e-09
1.1443394e-10
1.7635473e-09
5.8120976e-13
1.1748524e-11
1.9453294e-09
1.6558148e-12
1.4562478e-10
1.9577091e-11
2.4933236e-09
1.9164862e-10
1.5736048e-11
2.7660913e-09
1.9115837e-10
1.2797488e-12
2.8755628e-09
1.7453431e-10
-1.3464582e-11
2.8763136e-09
1.7382847e-10
-1.8123079e-11
2.7682276e-09
1.8922369e-10
-1.1492362e-11
2.4965338e-09
1.8809729e-10
1.9488299e-09
7.1037007e-13
1.4111006e-10
1.1100709e-12
2.5879272e-12
1.4316097e-10
7.138777e-14
1.560697e-12
4.4049337e-12
2.4249137e-10
1.1064789e-12
4.8226402e-12
3.0001271e-10
3.3387797e-13
4.2107135e-12
3.2501792e-10
-5.3936117e-13
4.1094286e-12
3.2545224e-10
-1.1901148e-12
4.4367937e-12
3.0120733e-10
-1.145593e-12
3.4667148e-12
2.4463031e-10
1.7916154e-12
1.4459494e-10
-2.4990349e-14
2.8514473e-12
1.0176696e-11
4.3870452e-10
4.9683528e-13
4.282725e-12
1.6146511e-11
6.9366263e-10
3.2235933e-12
1.7407695e-11
8.4151003e-10
8.8252647e-13
1.5447715e-11
9.0574096e-10
-1.6975117e-12
1.5107715e-11
9.0679109e-10
-3.2272068e-12
1.6140302e-11
8.4438847e-10
-2.2165519e-12
1.3837877e-11
6.9753046e-10
8.1289886e-12
4.4255391e-10
1.6229338e-13
4.1948164e-12
2.2135905e-11
7.2944474e-10
1.0860156e-12
6.5994947e-12
3.360675e-11
1.0990382e-09
5.1508729e-12
3.5804109e-11
1.3131945e-09
1.3063491e-12
3.2102076e-11
1.4059413e-09
-2.8938977e-12
3.1467193e-11
1.4073796e-09
-5.2051174e-12
3.3666327e-11
1.3170521e-09
-3.7880491e-12
2.9897099e-11
1.1043017e-09
1.8168672e-11
7.3506673e-10
2.7261967e-13
5.2420612e-12
3.7692975e-11
1.009131e-09
1.7409162e-12
8.590301e-12
5.5227231e-11
1.4590027e-09
6.8847751e-12
5.8206943e-11
1.7186397e-09
1.6125414e-12
5.2609574e-11
1.8304602e-09
-4.1079131e-12
5.1691725e-11
1.83209e-09
-6.9562441e-12