/*--------------------------------*- C++ -*----------------------------------*\
  =========                 |
  \\      /  F ield         | OpenFOAM: The Open Source CFD Toolbox
   \\    /   O peration     | Website:  https://openfoam.org
    \\  /    A nd           | Version:  13
     \\/     M anipulation  |
\*---------------------------------------------------------------------------*/
FoamFile
{
    format      ascii;
    class       volScalarField;
    location    "0.07";
    object      rho;
}
// * * * * * * * * * * * * * * * * * * * * * * * * * * * * * * * * * * * * * //

dimensions      [1 -3 0 0 0 0 0];

internalField   nonuniform List<scalar> 
51200
(
1
1
1
1
1
1
1
1
1
1
1
1
1
1
1
1
1
1
1
1
1
1
1
1
1
1
1
1
1
1
1
1
1
1
1
1
1
1
1
1
1
1
1
1
1
1
1
1
1
1
1
1
1
1
1
1
1
1
1
1
1
1
1
1
1
1
1
1
1
1
1
1
1
1
1
1
1
1
1
1
1
1
1
1
1
1
1
1
1
1
1
1
1
1
1
1
1
1
1
1
1
1
1
1
1
1
1
1
1
1
1
1
1
1
1
1
1
1
1
1
1
1
1
1
1
1
1
1
1
1
1
1
1
1
1
1
1
1
1
1
1
1
1
1
1
1
1
1
1
1
1
1
1
1
1
1
1
1
1
1
1
1
1
1
1
1
1
1
1
1
1
1
1
1
1
1
1
1
1
1
1
1
1
1
1
1
1
1
1
1
1
1
1
1
1
1
1
1
1
1
1
1
1
1
1
1
1
1
1
1
1
1
1
1
1
1
1
1
1
1
1
1
1
1
1
1
1
1
1
1
1
1
1
1
1
1
1
1
1
1
1
1
1
1
1
1
1
1
1
1
1
1
1
1
1
1
1
1
1
1
1
1
1
1
1
1
1
1
1
1
1
1
1
1
1
1
1
1
1
1
1
1
1
1
1
1
1
1
1
1
1
1
1
1
1
1
1
1
1
1
1
1
1
1
1
1
1
1
1
1
1
1
1
1
1
1
1
1
1
1
1
1
1
1
1
1
1
1
1
1
1
1
1
1
1
1
1
1
1
1
1
1
1
1
1
1
1
1
1
1
1
1
1
1
1
1
1
1
1
1
1
1
1
1
1
1
1
1
1
1
1
1
1
1
1
1
1
1
1
1
1
1
1
1
1
1
1
1
1
1
1
1
1
1
1
1
1
1
1
1
1
1
1
1
1
1
1
1
1
1
1
1
1
1
1
1
1
1
1
1
1
1
1
1
1
1
1
1
1
1
1
1
1
1
1
1
1
1
1
1
1
1
1
1
1
1
1
1
1
1
1
1
1
1
1
1
1
1
1
1
1
1
1
1
1
1
1
1
1
1
1
1
1
1
1
1
1
1
1
1
1
1
1
1
1
1
1
1
1
1
1
1
1
1
1
1
1
1
1
1
1
1
1
1
1
1
1
1
1
1
1
1
1
1
1
1
1
1
1
1
1
1
1
1
1
1
1
1
1
1
1
1
1
1
1
1
1
1
1
1
1
1
1
1
1
1
1
1
1
1
1
1
1
1
1
1
1
1
1
1
1
1
1
1
1
1
1
1
1
1
1
1
1
1
1
1
1
1
1
1
1
1
1
1
1
1
1
1
1
1
1
1
1
1
1
1
1
1
1
1
1
1
1
1
1
1
1
1
1
1
1
1
1
1
1
1
1
1
1
1
1
1
1
1
1
1
1
1
1
1
1
1
1
1
1
1
1
1
1
1
1
1
1
1
1
1.0000005
1.0000924
1.0000017
1
1
1
1
1
1
1.0000002
1
1
1
1
1
1
1
1
1
1
1
1
1
1
1
1
1
1
1
1
1
1
1
1
1
1
1
1
1
1
1
1
1
1
1
1
1
1
1
1
1
1
1
1
1
1
1
1
1
1
1
1
1.0000001
1
1
1.0004047
1.0000034
1
1
1
1
1
1
1.0000012
1
1
1
1
1
1
1
1
1
1
1
1
1
1
1
1
1
1
1
1
1
1
1
1
1
1
1
1
1
1
1
1
1
1
1
1
1
1
1
1
1
1
1
1
1
1
1
1
1
1.0002307
1.0000104
1
1
1.000009
1.0029468
1.0004427
1.0000025
1.0000003
1.0000001
1
1
1
1
1.0000032
1.0000025
1
1
1
1
1
1
1
1
1
1
1
1
1
1
1
1
1
1
1
1
1
1
1
1
1
1
1
1
1
1
1
1
1
1
1
1
1
1
1
1
1
1
1
1
1
1
1
1
1.0013139
1.000289
1
1.0000471
1
1.0080148
1.0002635
1.0007613
1
1.0000011
1
1
1
1.0001349
1.0000473
1.0000138
1
1
1
1
1
1.0000006
1.0000001
1.0000002
1
1
1
1
1
1
1
1
1
1
1
1
1
1
1
1
1
1
1
1
1
1
1
1
1
1
1
1
1
1
1
1
1
1
1
1
1
1
1
1
1.0026137
1.0002818
1
1.0004134
1.0140671
1.0081685
1.0000023
1.000829
1
1.0000005
1
1.0000033
1
1.0004894
1.0001821
1.0000229
1
1
1
1
1
1.0000011
1
1.000001
1
1
1
1
1
1
1
1
1
1
1
1
1
1
1
1
1
1
1
1
1
1
1
1
1
1
1
1
1
1
1
1
1
1
1
1
1
1
1
1
1.0145453
1.0000009
1
1.0006088
1.0539867
1.0051572
1
1.0001702
1.003873
1.0000382
1
1.0000515
1.0010687
1.001548
1.0001597
1.0000243
1
1
1
1
1
1
1
1.0000013
1
1
1
1
1
1
1
1
1
1
1
1
1
1
1
1
1
1
1
1
1
1
1
1
1
1
1
1
1
1
1
1
1
1
1
1
1
1
1
1
1.0187268
1.0002373
1
1.0001176
1.0569099
1.0056919
1
1
1.006077
1.0000402
1
1.0000558
1.0242471
1.0013901
1.0000305
1.0000143
1.0029734
1
1
1.0000144
1.0000167
1
1.0000002
1.0000009
1.0000957
1
1
1
1
1
1
1
1.0000003
1
1
1
1
1
1
1
1
1
1
1
1
1
1
1
1
1
1
1
1
1
1
1
1
1
1
1
1
1
1
1
1.0093903
1.0013373
1
1
1.0569195
1.0082881
1.0081943
1.0176095
1.0092977
1.0000651
1
1
1.056922
1.0014397
1
1
1.0027313
1
1
1.0000184
1.00888
1.0001191
1.0000017
1
1.0000612
1
1
1.0000012
1
1
1
1
1.0000003
1
1
1
1
1
1
1
1
1
1
1
1
1
1
1
1
1
1
1
1
1
1
1
1
1
1
1
1
1
1
1
1.0028408
1.0011287
1
1.0006614
1.0569238
1.0081978
1.015986
1.0636975
1.0039487
1.0000392
1
1
1.0569224
1.0018152
1.0000001
1.0042289
1.0011299
1
1
1
1.0483445
1.0012684
1.0000025
1
1.0000085
1
1
1.0000138
1.003033
1.0000844
1
1
1
1
1
1.0000002
1
1
1
1
1
1
1
1
1
1
1
1
1
1
1
1
1
1
1
1
1
1
1
1
1
1
1
1
1.0019497
1.000323
1.0000002
1.001364
1.0333773
1.0055703
1.0166012
1.071934
1.0000982
1.0000394
1.0000136
1
1.0569219
1.0027244
1.0000002
1.0560214
1.0001679
1
1
1
1.0569054
1.0007023
1.0000001
1.0065984
1.0000029
1
1
1
1.0285685
1.0005938
1
1
1
1
1
1.0000158
1.0007861
1.0000381
1
1
1
1
1.0000001
1.0000042
1
1
1
1
1
1
1
1
1
1
1
1
1
1
1
1
1
1
1
1
1.0031022
1.0000061
1.0000025
1.0000108
1.0025557
1.0011965
1.028919
1.0719336
1.0000003
1.0000496
1.0000389
1
1.033965
1.0040025
1.0008172
1.0719333
1.0000001
1.0000009
1.0000036
1
1.0490192
1.0001191
1.0013683
1.0631362
1.0000008
1.0000001
1.0000002
1
1.0489846
1.0003145
1.0015487
1.005609
1
1
1
1
1.0321894
1.0001459
1
1
1
1
1
1.0000039
1.0068253
1.0001177
1
1
1
1
1
1.0000003
1
1.0000067
1
1
1
1
1
1
1
1
1
1
1.0044254
1.0000003
1.0000125
1
1.0015523
1.0002203
1.0221452
1.0283702
1
1.0000451
1.0000048
1
1.012398
1.0027776
1.0085391
1.0372622
1
1
1.0000006
1
1.0123077
1.0001186
1.0059666
1.0639236
1.0000003
1.000001
1.0000031
1
1.0303925
1.0009968
1.0048969
1.0639585
1.0000001
1.0000007
1.0000031
1
1.0334323
1.001012
1.0009048
1.0206148
1
1
1
1
1.0076692
1.0004937
1
1
1
1
1
1
1
1.0000022
1
1
1
1
1
1
1
1
1
1
1.003228
1.0000003
1.0000001
1.4821054
1.0202387
1.000002
1.001756
1.0056491
1.0030675
1.0000159
1.0000001
1.5020518
1.0044668
1.0000029
1.0098839
1.0422221
1
1.0000001
1.0000001
1.4674322
1.0112625
1.0000021
1.0021245
1.0637645
1
1.0000007
1.0000001
1.4373032
1.0088651
1.0005357
1.0043249
1.0640512
1
1.0000008
1.0000001
1.4647275
1.0104012
1.0005998
1.0015395
1.0482223
1
1.0000007
1.0026243
1.3433427
1.0040399
1.0002024
1.0000208
1.0036894
1.0000001
1.0000011
1.0031032
1.0927137
1.0014818
1
1
1
1.0000003
1
1.001746
1.0242608
1.0004084
1
1.0000001
1
1.0011292
1.0000002
1.0020579
2.0297873
1.2561167
1.000002
1.0002706
1.0008377
1.0022979
1
1.0554714
2.0303119
1.2302891
1.0000019
1.0100985
1.0436404
1.0000038
1
1.0668165
2.0303585
1.2265942
1.0000019
1.0039967
1.0640747
1
1
1.0747179
2.030933
1.1787363
1.0001566
1.0033536
1.0640753
1
1
1.0792049
2.0312161
1.1554442
1.000641
1.0014716
1.0504729
1
1
1.0729632
2.0302448
1.1194606
1.0000008
1.0000722
1.0049471
1.0000002
1.0000028
1.0416083
2.029765
1.0611584
1
1
1
1.0000007
1.0000537
1.060119
1.9630477
1.0584668
1.0000048
1.0000007
1
1.0001339
1.0000006
1.0000006
1.9690387
1.38237
1.000002
1.0001423
1.0000205
1.0013564
1
1.0000008
1.9871493
1.3811907
1.0000019
1.0075166
1.020721
1.0000014
1
1
2.0189567
1.3227542
1.0000019
1.0056767
1.0634378
1
1
1
2.032287
1.3104089
1.0000015
1.0036976
1.0640512
1.0000001
1
1.0000001
2.0323222
1.2909116
1.0000009
1.0013192
1.0297658
1.0000001
1
1.0000002
2.0307879
1.249492
1.0000004
1.0000343
1.0025875
1.0000002
1.000009
1.000005
2.0279635
1.1787807
1
1
1
1.0000002
1.0000376
1.0294
2.0241929
1.1720775
1.0000113
1.0000012
1.0000001
1.0000066
1.0000006
1.3417932
2.0337441
1.0975722
1.0164157
1.0007211
1.0000132
1.0002122
1.0000003
1.4316787
2.0336935
1.119548
1.003631
1.0032376
1.0025458
1
1
1.4179845
2.0336599
1.1180887
1.0003426
1.0041609
1.0324246
1
1
1.4750482
2.0335365
1.1079606
1.0000444
1.0032713
1.042028
1
1
1.4480378
2.0331195
1.0865915
1.0000049
1.0008313
1.0026598
1
1.0000001
1.4722278
2.0323359
1.0603392
1.0000002
1
1.0004028
1.0000002
1.0000002
1.3736146
2.0309746
1.0180193
1
1
1
1.0000003
1.0000006
1.396024
1.9903834
1.0004993
1.0000004
1
1.0000001
1
1.0101137
1.2087372
1.5286927
1.0317789
1.0083191
1.0056391
1.0002634
1
1.0107937
1.2818197
1.681908
1.0179371
1.0013957
1.0006504
1.0003794
1
1.0043621
1.2706321
1.740469
1.0093931
1.000435
1.0017078
1.0037604
1
1
1.4109221
1.7312819
1.02113
1.0003316
1.0007829
1.0066916
1
1
1.4679752
1.6523824
1.0250876
1.0015487
1.0000079
1
1
1
1.4516298
1.6487712
1.0203404
1.0043513
1.0003244
1.0000028
1.0000001
1.0000001
1.4949781
1.5397214
1.0171386
1.0045733
1.0001843
1
1.0000001
1.0102366
1.4914774
1.4970469
1.0106536
1.0025016
1.0000386
1.0000001
1.0000001
1.0150382
1.0489319
1.015933
1.0083173
1.012047
1.0108844
1.0000407
1.0000791
1.0136452
1.0427605
1.0324146
1.0061214
1.0041195
1.0013554
1.0001429
1.0001298
1.01471
1.0572322
1.0284053
1.0055789
1.0049799
1.0027049
1.0001424
1
1.0291397
1.2286046
1.0462794
1.0057502
1.0107033
1.0078712
1.0003834
1
1.0092737
1.4669824
1.0705944
1.0051145
1.0219979
1.0113463
1.0000001
1
1
1.4756259
1.0679328
1.0036111
1.0199997
1.0065622
1
1
1.0000001
1.4767012
1.0485652
1.0020382
1.0082349
1.0036528
1.0000006
1.0000001
1.0000004
1.4883096
1.0275393
1.0010092
1.0041362
1.0020065
1.0000038
1.0000028
1.0108853
1.0298692
1.0180021
1.0083757
1.1416858
1.0020263
1.0000028
1.0001159
1.0074506
1.0162821
1.0166337
1.0062566
1.0817368
1.0064057
1.0000028
1.0019931
1.009028
1.0127859
1.0139224
1.0113167
1.0203088
1.0049079
1.0000035
1.0092679
1.0598104
1.0591367
1.0141556
1.2005734
1.0444714
1.0078625
1.0000029
1.0007799
1.0597783
1.1061996
1.0224617
1.3440827
1.049317
1.0057911
1.0000013
1
1.0249513
1.0838716
1.0248222
1.0041515
1.012521
1.0033817
1.0000017
1.0010605
1.0370719
1.1853862
1.0399073
1.0030785
1.0107231
1.00161
1.0000017
1.0001704
1.0491439
1.3286131
1.0567734
1.0020933
1.0087927
1.0009
1.0000012
1.0000035
1.0014885
1.0015185
2.9606307
12.081364
1.0000368
1.0021308
1.0000028
1.0004424
1.0077617
1.0036741
3.0441312
12.469255
1.0000345
1.0028054
1.000003
1.0018463
1.011286
1.0054411
2.6629701
11.907321
1.0000319
1.0017095
1.0000036
1.0068819
1.0523528
1.0172866
3.1467314
11.343521
1.0000303
1.0010546
1.0000035
1.0059693
1.059689
1.0219474
2.4930824
9.8808298
1.0724804
1.0000035
1.0000029
1.0052512
1.0596011
1.0239762
2.4717381
8.9889246
1.0431955
1.0000039
1.0000035
1.0010658
1.0593376
1.0260249
1.9704351
7.7410259
1.0609963
1.0000038
1.0000032
1.0000006
1.0362409
1.0282905
1.5859146
6.4311426
1.0465003
1.000004
1.0000025
1.0189525
1.0008364
3.1582146
46.99354
39.848983
1.0000345
1.0004391
1.0080019
1.0004474
1.0023776
1.6100507
49.173643
42.121186
1.0000319
1.0000345
1.0011689
1.0004618
1.0013922
1.9031155
47.021593
41.109349
1.0000303
1.00003
1.0064745
1.0015121
1.0040457
1.5910429
41.762669
41.914274
1.0000255
1.0000195
1.0080935
1.0057569
1.0031097
1.9183124
37.139266
38.159633
1.0000195
1.0000169
1.0000035
1.0058204
1.0028509
2.6376202
29.06799
35.641115
1.000018
1.000016
1.0000043
1.0012178
1.0024576
2.0424449
22.403294
28.227729
1.0000176
1.0000164
1.0000038
1.0019398
1.0244206
1.3528118
24.1085
22.630823
1.0000172
1.0000157
1.0000862
1.1012072
1.0005767
64.183794
191.39612
191.41636
39.107234
1.000269
1.0681482
1.0241686
1.0007823
80.97304
191.39931
191.40554
50.892303
1.0000564
1.0458432
1.0042109
1.0027339
75.00319
191.38036
191.39981
50.405131
1.0000735
1.0356526
1.0003414
1.000987
87.316479
191.35197
191.36663
56.274489
1.0000618
1.0096976
1.0000791
1.013549
78.487895
191.33681
191.18862
55.175665
1.0000195
1.0000753
1.000066
1.0869552
84.51803
191.182
190.81916
55.62162
1.0000901
1.0000522
1.0000944
1.0018327
73.399137
189.38758
190.33668
49.795387
1.0012295
1.0000266
1.0001899
1.045072
77.778167
163.04801
189.01657
43.948919
1.0000174
1.0000351
1.0346725
1.0002991
19.964902
171.65181
191.41636
15.892329
1.0006009
1.0681076
1.0520157
1.0002958
25.120419
174.52691
191.41636
24.671854
1.0006051
1.0504451
1.0428527
1.0002294
21.305971
177.0475
191.40279
23.73284
1.0001839
1.0190797
1.0000701
1.0002171
27.25161
175.0022
191.36804
23.489556
1.0001551
1.0002307
1.0000646
1.0000793
22.338765
162.79928
191.33247
18.245719
1.0000835
1.0001768
1.0000635
1.0004006
28.245578
157.34535
190.20885
12.169121
1.0001128
1.000389
1.0000637
1.0000992
26.378743
118.03098
171.356
10.249876
1.0008509
1.0021804
1.0038113
1.0122021
33.317679
99.522537
153.05798
14.929579
1.0008667
1.001361
1.0154334
1.0002521
1.0002991
26.03853
50.650504
1.0209765
1.0171813
1.056897
1.0105918
1.0001929
2.0435859
23.184651
53.186856
2.6616104
1.1620003
1.1195612
1.0094977
1.0001134
2.4300185
23.506167
48.2473
3.2872863
1.1066885
1.1751815
1.0105875
1.000082
3.427529
22.261471
53.11467
3.1297811
1.0002307
1.1473763
1.0000686
1.0000705
3.229246
21.210691
38.319751
4.9127466
1.0234088
1.0077451
1.0000628
1.0000637
2.3924406
26.688113
32.423763
4.8497432
1.0242311
1.0058158
1.0000628
1.0000619
1.0163952
29.021731
23.66329
4.6710398
1.0855887
1.0217099
1.0013768
1.0000659
1.3515048
18.745911
17.396028
4.8880608
1.2864752
1.0107778
1.0184502
1.0001929
2.0215377
7.0975781
6.9262723
1.024488
1.0031003
1.0086815
1.0118458
1.0001201
1.7116097
7.9514164
7.7284152
1.0780845
1.0078164
1.0149351
1.0001201
1.0000887
1.3894298
7.0692469
7.2853019
1.3491459
1.0257164
1.0436045
1.0007719
1.0000705
1.1698686
7.1671569
6.084486
1.4292495
1.2082372
1.0301826
1.000078
1.0000619
1.1186396
5.8802371
6.7249442
1.590957
1.3226898
1.0077962
1.0000619
1.0000619
1.1623297
3.8111927
5.6321827
1.541831
1.3498289
1.1375645
1.0000698
1.0000619
1.1728955
2.6983675
5.6966937
1.9578398
1.1251343
1.1844218
1.0002115
1.0000619
1.1140938
1.5599355
3.4256146
2.1008583
1.0861725
1.0867999
1.0045705
1.0015132
1.0015204
1.0016385
1.1848633
1.6307202
1.1135051
1.0137279
1.0206482
1.0047378
1.0015521
1.011792
1.371076
1.9449185
1.4198186
1.0078666
1.0001769
1.0100997
1.0015962
1.0155299
1.3604199
1.950693
1.1643126
1.0020831
1.0003631
1.0031928
1.0015679
1.0582466
1.5666664
1.9499356
1.2335301
1.0230781
1.0000688
1.0040086
1.0015991
1.0977381
1.4748844
1.6962838
1.1677576
1.0725329
1.000062
1.0000619
1.0078443
1.1085978
1.4139216
1.1038622
1.1044254
1.0438256
1.000063
1.0000619
1.0107424
1.058233
1.5792637
1.2092894
1.1708713
1.0388169
1.0000647
1.0002481
1.0047893
1.0058301
1.3119878
1.5164344
1.1757959
1.0097846
1.0086378
1.0025423
1.0199574
1.0024736
1.0159517
1.2535176
1.0717734
1.023994
1.0098681
1.0034464
1.0031634
1.0105191
1.0278882
1.252457
1.068767
1.003737
1.0018839
1.0126454
1.0027483
1.0091443
1.0617718
1.3292668
1.0952587
1.0010133
1.0014796
1.0036772
1.0015667
1.0028618
1.0364185
1.947255
1.0612697
1.0077612
1.0001197
1.0043273
1.0015635
1.0001721
1.0300336
1.4893366
1.1243779
1.0074846
1.0000713
1.0013869
1.0016142
1.0008467
1.0130445
1.0148942
1.0242757
1.0062035
1.0000642
1.000063
1.0016498
1.0006072
1.0238599
1.1043269
1.0838325
1.0105711
1.0000808
1.0001331
1.0022072
1.0002546
1.0192754
1.4690082
1.1039476
1.0008616
1.0093132
1.007913
1.0236005
1.0024778
1.0000025
1.0002434
1.024426
1.0265471
1.0089323
1.0022486
1.0077037
1.0107509
1.0001989
1.0048247
1.0421733
1.0033739
1.0163521
1.0137465
1.0027322
1.01058
1.0016627
1.0112486
1.0159767
1.0018698
1.0003406
1.0045565
1.0015679
1.0026434
1.0080806
1.1654576
1.0449188
1.0009377
1.0003134
1.0042311
1.001715
1.0001426
1.0002442
1.4893521
1.0294314
1.0009651
1.0000742
1.0002001
1.0010946
1.0001542
1.0001369
1.2076982
1.0121763
1.00121
1.0000648
1.0000642
1.0007398
1.0001228
1.0017748
1.1116059
1.0251068
1.0010822
1.0001027
1.0000648
1.0013288
1.000112
1.0019572
1.2412623
1.0241618
1.0007896
1.0058991
1.0073848
1.0232127
1.0020024
1.0000021
1.0001845
1.0092663
1.0143511
1.0049073
1.0009492
1.0162992
1.0097186
1.0000772
1.0029068
1.0215221
1.0190051
1.0245753
1.0124009
1.0047238
1.0091502
1.0005729
1.0032647
1.0193491
1.0063107
1.0004077
1.0102023
1.0071379
1.0045194
1.0008642
1.0051957
1.044797
1.0009449
1.0002835
1.0001975
1.0006637
1.0001393
1.0001369
1.0603522
1.0388435
1.0009704
1.0006795
1.0009885
1.0006726
1.000387
1.0001341
1.128282
1.0072972
1.0008642
1.0013322
1.0012983
1.0008197
1.00012
1.0001312
1.1039562
1.005167
1.0008543
1.0001271
1.0000821
1.0006181
1.000103
1.0001284
1.0244024
1.0135536
1.0006888
1.0006879
1.0048723
1.0117263
1.0018831
1.0000014
1.0004186
1.0045172
1.0030151
1.0000152
1.0001651
1.0213753
1.0068422
1.0000018
1.0056479
1.0289929
1.0293731
1.0168223
1.0103475
1.0089557
1.0034952
1.0000589
1.0048316
1.0316543
1.0274148
1.008633
1.0153384
1.0162405
1.0119793
1.0008887
1.0025565
1.044658
1.0012132
1.0000926
1.0000874
1.0000926
1.003245
1.0024859
1.0053238
1.0371182
1.0017791
1.0008254
1.0006771
1.0001034
1.0007849
1.0001368
1.0116578
1.009669
1.0025356
1.001488
1.0014835
1.0004212
1.0000963
1.0002037
1.0205095
1.005264
1.0011487
1.001168
1.0015207
1.0003197
1.000095
1.0000963
1.0013522
1.0078475
1.0006517
1.0000054
1.0021758
1.0081559
1.0014336
1.0000007
1.0005182
1.0017141
1.001717
1.000006
1.0000558
1.0214058
1.0050248
1.0000011
1.0095819
1.0324479
1.0292907
1.0088573
1.0081286
1.007458
1.0022782
1.0000067
1.0065641
1.0324438
1.0324333
1.0195219
1.0192306
1.0191464
1.0123096
1.0006986
1.022108
1.0319244
1.0052502
1.0003819
1.0000879
1.0001121
1.0240642
1.0148285
1.0051677
1.0159798
1.0018863
1.0001619
1.0000983
1.0000686
1.0018942
1.0226255
1.0045059
1.0123338
1.0021729
1.0007385
1.0006678
1.0000744
1.0001315
1.0037855
1.0033404
1.0047329
1.0031956
1.0008079
1.0010294
1.0001202
1.0001735
1.0001362
1.0014012
1.0014243
1.0024423
1.0000051
1.0012949
1.0052499
1.0006568
1.0000004
1.000078
1.0002591
1.002257
1.0001094
1.0034113
1.0214347
1.0038813
1.0000006
1.0132394
1.0324438
1.0324317
1.0024926
1.0033803
1.003405
1.0016177
1.0000046
1.0048375
1.0267333
1.0324295
1.0211805
1.0191263
1.0112986
1.0096392
1.0012933
1.0242854
1.0242899
1.0108319
1.0211321
1.0055245
1.006395
1.0315323
1.0281139
1.0090762
1.0095622
1.0038998
1.0000692
1.0000686
1.0000686
1.0129758
1.0440452
1.012484
1.0076582
1.0021749
1.0000807
1.0000688
1.0000686
1.0014796
1.0319218
1.0079663
1.0034621
1.0024046
1.0002177
1.0001517
1.0000688
1.0000714
1.017507
1.0045121
1.0014192
1.00196
1.0000012
1.0003484
1.0010474
1.0001114
1.0000003
1
1
1.0000178
1.0010555
1.015815
1.0214404
1.0025793
1.0000004
1.0120325
1.0299418
1.0214151
1.0010565
1.0010812
1.0024382
1.0007767
1.0000013
1.0046779
1.0253917
1.0324035
1.0114562
1.0120906
1.002333
1.0063405
1.0007379
1.0074419
1.0097116
1.028952
1.0247828
1.0247887
1.010359
1.0315672
1.0274302
1.0067158
1.0087344
1.0089656
1.007424
1.0010166
1.0000686
1.0351893
1.044061
1.0199391
1.008987
1.0039255
1.0046105
1.0000766
1.0001215
1.003519
1.0440452
1.0154661
1.0026184
1.0014351
1.0029526
1.0000708
1.0000702
1.0000705
1.0438069
1.011151
1.0013892
1.0014129
1
1
1.0000099
1.000063
1.000001
1
1
1
1.0007877
1.0107082
1.021437
1.0015555
1.0000007
1.0061366
1.02081
1.0033192
1.0019073
1.0011909
1.0040704
1.0003299
1.0000016
1.0145012
1.0253661
1.0241967
1.0021373
1.002156
1.0009204
1.0049877
1.0006986
1.002689
1.0076898
1.0289141
1.0064741
1.0132818
1.0030466
1.0355242
1.0245839
1.0024598
1.0025759
1.0283211
1.0038085
1.0113731
1.0010003
1.0407031
1.0440576
1.0135216
1.0044567
1.0128913
1.0049208
1.0093557
1.0041287
1.0014816
1.0323683
1.015864
1.0093406
1.0022457
1.0060929
1.0003103
1.0028948
1.0016231
1.0297495
1.0113034
1.002015
1.0014351
1
1
1
1.0000241
1.0000002
1
1
1
1.0001532
1.0006665
1.0078125
1.0016126
1.0000073
1
1.0050998
1
1.00126
1.0014754
1.0049891
1.00124
1.0000006
1.0220495
1.0233699
1.0050791
1.0016341
1.0001718
1.0009121
1.0020864
1.0005895
1.0073269
1.0189599
1.0152494
1.0004116
1.0008655
1.0006845
1.0277542
1.0128615
1.0024344
1.0055582
1.0239184
1.0000348
1.0067739
1.0005262
1.0385508
1.0334546
1.0027351
1.0023213
1.0235485
1.000744
1.0104941
1.0024689
1.0014007
1.0088365
1.0026216
1.0080801
1.0146844
1.0043687
1.0124343
1.007012
1.0097303
1.0053644
1.001765
1.0108691
1.0026298
1
1
1
1
1
1
1
1
1
1
1.0000092
1.0008886
1.0000054
1
1
1
1.0000557
1.0010841
1.0025676
1.0019215
1.0000002
1.0115597
1.0099119
1.0002215
1.0016845
1.0001433
1.001392
1.0016958
1.0002059
1.0193039
1.0193016
1.0021709
1.0004932
1.0000261
1.0004299
1.0078003
1.0035037
1.0058328
1.0193036
1.0052974
1.0000276
1.0009076
1.0004049
1.0150501
1.0032412
1.0001515
1.0120486
1.014099
1.000023
1.0006707
1.0003995
1.0013873
1.0005946
1.0000985
1.0088519
1.0152659
1.0025452
1.0122418
1.0014973
1.0048512
1.0001001
1.0000978
1.0109298
1.0152656
1
1
1
1
1
1
1
1
1.0000016
1.000032
1
1.0000382
1.0000002
1
1
1
1.0000003
1.0001695
1.0000836
1.001077
1.0000001
1.0005823
1.0005224
1.0000006
1.0007465
1.0001535
1.0009346
1.0019745
1.0002001
1.0115186
1.0055431
1.0000471
1.0005595
1.0000253
1.0004597
1.0026268
1.0008434
1.0069653
1.0138629
1.0004417
1.0000283
1.0000247
1.000404
1.0011454
1.0010402
1.0001218
1.01387
1.0027971
1.0000229
1.000023
1.0001323
1.0006551
1.0001911
1.0000978
1.0108883
1.0072558
1.0000561
1.00295
1.0001392
1.0003565
1.0000978
1.0000978
1.003666
1.0131478
1
1
1
1
1
1
1
1
1.0000003
1.0000187
1
1
1.0000003
1.0000008
1
1
1.0000003
1.0000154
1
1.0000846
1.0000001
1.0000001
1.000005
1
1.0003636
1.0000715
1.0001452
1.0009383
1.0000672
1.0005847
1.0000457
1.0000404
1.0000228
1.0000252
1.0001039
1.0014526
1.000088
1.0028645
1.0020345
1.0000297
1.0000228
1.0000246
1.0011513
1.0017793
1.0001702
1.0022291
1.0102746
1.0010726
1.0000229
1.0000318
1.0007892
1.0014329
1.000531
1.0000978
1.0146542
1.0025939
1.0000229
1.0002838
1.0001634
1.0002508
1.000745
1.0000978
1.0045943
1.0053845
1
1
1
1
1
1
1
1
1
1.0000032
1
1
1.0000007
1.0000004
1
1
1.0000139
1.0000681
1.0011321
1.0000083
1.0000006
1.0000001
1.0000174
1.0000001
1.0011107
1.0000497
1.0005969
1.0000264
1
1.0000001
1.0002563
1.0000539
1.0051226
1.0000238
1.0000293
1.0007819
1.0001062
1.0029333
1.003155
1.0000266
1.0000228
1.0000236
1.0007593
1.0017798
1.0002417
1.0130117
1.0223747
1.0025764
1.0008616
1.0000335
1.0007737
1.0017793
1.0008513
1.0277504
1.0563811
1.0076196
1.0000236
1.0010044
1.0001649
1.0006749
1.0025644
1.0068499
1.0489085
1.0168722
1
1
1
1
1
1
1
1
1
1.0000008
1
1
1.0000005
1
1
1
1.0001843
1.0000485
1.0020282
1.0000543
1
1
1.000009
1.000001
1.0062053
1.0000495
1.0021266
1.0000454
1
1
1.0002172
1.0000064
1.0297628
1.0000847
1.0004394
1.0001167
1.000432
1.0052077
1.006199
1.000096
1.0253042
1.000024
1.0000993
1.0011105
1.0005705
1.0215056
1.0486502
1.0082879
1.0334701
1.0000241
1.0001532
1.0013597
1.0021746
1.0492172
1.0583192
1.0103021
1.0315099
1.0003106
1.0000463
1.0004272
1.0027579
1.0404662
1.0583234
1.0204238
1
1
1
1
1
1
1
1
1
1
1
1
1.0000001
1
1
1
1.0000595
1.000038
1.0021057
1.0001402
1
1
1.0000008
1.0000001
1.0048265
1.0002031
1.0021267
1.0012526
1
1.0000064
1.000056
1
1.035493
1.0048749
1.0005469
1.0005081
1.0007572
1.0098222
1.0048613
1.0002017
1.0413238
1.0059535
1.0000259
1.0000971
1.0021499
1.0257347
1.0492482
1.0058697
1.0413229
1.0066678
1.0000251
1.0001402
1.0028439
1.0393322
1.0583227
1.005382
1.0413175
1.0047755
1.000025
1.0000455
1.0025716
1.0583192
1.0583192
1.0111375
1
1
1
1
1
1
1
1
1
1
1
1
1
1
1
1
1.0000436
1.0000483
1.0015519
1.0002233
1
1
1
1
1.0008267
1.0009525
1.0011951
1.0012844
1
1.0000017
1.0000014
1
1.0232873
1.0165973
1.0008555
1.0011151
1.0006767
1.0091638
1.0010504
1.0000425
1.0413236
1.0365724
1.0002761
1.0001153
1.0038061
1.028404
1.0178737
1.0007829
1.0413242
1.0398523
1.000025
1.0000256
1.0048317
1.0448913
1.0399957
1.0008992
1.0413229
1.0321994
1.000025
1.000025
1.003508
1.0582585
1.0430703
1.0011372
1
1
1
1
1
1
1
1
1.000003
1
1
1
1
1
1
1
1.0000592
1.0000565
1.0002731
1.0000264
1.0000002
1
1
1
1.0001001
1.0008939
1.0024669
1.000954
1
1.0000094
1
1
1.0050712
1.0124018
1.0018553
1.0017543
1.0002468
1.0043769
1.0002557
1.0000219
1.0372861
1.0387554
1.0017176
1.000201
1.0025179
1.0209713
1.002048
1.0000928
1.0413229
1.041316
1.000383
1.000031
1.0046665
1.039496
1.0039704
1.0000297
1.0413176
1.034758
1.000025
1.0000257
1.0035929
1.0518768
1.0092211
1.0000202
1
1
1
1
1
1
1
1
1.000023
1.0000028
1
1
1
1
1
1
1.0002372
1.0001388
1
1
1.0000004
1
1
1
1.0001897
1.0002788
1.0034291
1.0004738
1
1.0000016
1
1
1.0006714
1.0025389
1.0014051
1.0009932
1.0000152
1.0005881
1.0001866
1.0000239
1.0237413
1.0151693
1.0018216
1.0019451
1.0004116
1.0056435
1.0024449
1.0001416
1.041316
1.0234119
1.0021529
1.0005882
1.0021952
1.0166875
1.0011406
1.0000258
1.0172654
1.0165884
1.0028535
1.0000588
1.0025134
1.0110953
1.0041951
1.0000185
1
1
1
1
1
1
1
1
1.0000027
1
1
1
1
1
1
1
1.0003239
1.0005066
1.0001338
1.0000011
1.0000003
1
1
1
1.0007112
1.0006764
1.0062421
1.0001372
1
1
1
1
1.0014248
1.0004674
1.0007057
1.0007688
1.0000088
1.0003739
1.0001493
1.0000176
1.0114242
1.0011676
1.0013128
1.0021826
1.0001892
1.0023935
1.0030931
1.0001201
1.0119757
1.0019083
1.0050795
1.0014896
1.0002329
1.0012819
1.0022473
1.0000377
1.000673
1.0009296
1.0092821
1.0005955
1.000519
1.0011272
1.0017794
1.0000114
1
1
1
1
1
1
1
1
1.000015
1
1.0000004
1
1
1
1
1
1.0005054
1.00236
1.0008295
1.0000006
1.0000001
1
1
1
1.0005058
1.0057171
1.0065051
1.0002067
1
1
1
1
1.0137805
1.0002745
1.0007241
1.0009902
1.0000014
1.0006617
1.0000515
1.0000073
1.0270692
1.0031492
1.0009397
1.0021825
1.0007029
1.0034637
1.0031017
1.0000435
1.0013724
1.0002719
1.0051351
1.0014124
1.0002891
1.0018225
1.0022654
1.0000135
1.0000268
1.0003138
1.0095177
1.0011285
1.0003312
1.0014907
1.0000863
1.0000258
1
1
1
1
1
1
1
1
1.0000008
1.0000003
1.0000004
1
1
1
1
1
1.0005618
1.0015726
1.0004039
1.0000005
1.0000001
1
1
1
1.0026554
1.004631
1.0065049
1.0001297
1
1.0000001
1
1.0000001
1.009941
1.0002511
1.0010822
1.001201
1.0000197
1.0007096
1.0000855
1.000001
1.0270681
1.0021834
1.000558
1.0017028
1.0015427
1.0037276
1.0013154
1.0000043
1.0206662
1.0000009
1.0027764
1.0006173
1.0034995
1.003711
1.0011447
1.0000045
1.0000014
1.0000488
1.0076837
1.0011591
1.0016943
1.0025235
1.00008
1.0000765
1
1
1
1
1
1
1
1
1.0000003
1.0000006
1.0000001
1
1.0000001
1
1
1
1.0001005
1.0001992
1.0000589
1.0000033
1.0000004
1
1
1
1.0053905
1.0003259
1.0045559
1.0000006
1
1.0000001
1.0000011
1
1.0090913
1.0000439
1.0006289
1.0008834
1.0000383
1.0004653
1.0000565
1
1.0130361
1.000053
1.0001102
1.000342
1.0019805
1.0037291
1.000066
1.000001
1.0138481
1.0000007
1.0003999
1.00028
1.0037429
1.0037429
1.000151
1.0000047
1.0000009
1.0000021
1.002286
1.0011192
1.0037428
1.0037429
1.0002928
1.0001682
1
1
1
1
1
1
1
1
1.0000001
1.0000001
1
1
1.0000003
1
1
1
1
1
1.0000056
1.0000178
1.0000036
1
1
1
1.0035875
1.0000004
1.0002537
1.0003191
1
1
1.0000003
1
1.0164086
1.0060334
1.0000127
1.0000577
1.0000197
1.0001442
1.0000084
1.0000004
1.0146104
1.0000007
1.0000059
1.0000277
1.0015548
1.0030876
1.0000136
1.0000001
1.007263
1.0000007
1.0000009
1.0001654
1.0033698
1.0037429
1.0000109
1.0000097
1.0000007
1.0000007
1.0000542
1.0005212
1.0033374
1.0034478
1.0006614
1.0002111
1
1
1
1
1
1
1
1
1
1.0000001
1
1
1.0000007
1
1
1
1
1
1.0000131
1.0000346
1.0000114
1
1
1
1.0021747
1.0045306
1.0012498
1.001746
1
1
1
1
1.023503
1.0699919
1.0000007
1.0000006
1.0000115
1.0000145
1.000002
1.0000002
1.0496607
1.0391354
1.0000007
1.0000039
1.0006524
1.0016991
1.0000145
1
1.0569366
1.0269773
1.0000007
1.0000212
1.001122
1.0037025
1.0000087
1.0000129
1.0229302
1.0332568
1.0000007
1.0000314
1.0005503
1.0007799
1.0002465
1.0001555
1
1
1
1
1
1
1
1
1
1
1
1
1.0000007
1
1
1
1
1.000005
1
1.0000906
1.0000176
1
1
1
1.0066665
1.0529288
1.0080563
1.0023496
1
1
1
1
1.0476663
1.2881521
1.0137277
1.0000006
1.0000047
1.0000281
1.0000029
1
1.0997032
1.3645587
1.0000006
1.0000006
1.0000476
1.0005061
1.0000157
1
1.1607031
1.3751101
1.0017664
1.0000006
1.0000148
1.000836
1.0000087
1.0000046
1.2832396
1.3795515
1.006938
1.0000007
1.0000007
1.0000072
1.0000835
1.0000492
1
1
1
1
1
1
1
1
1
1.0000001
1
1
1.0000002
1
1
1
1.0000098
1.0000622
1
1.0002724
1.0000204
1
1
1
1.002081
1.0331758
1.0595394
1.0035046
1
1
1
1
1.0261711
1.302749
1.218389
1.0000006
1.0000007
1.0000282
1.0000053
1.0000001
1.0957597
1.4109691
1.2136139
1.0000006
1.0000026
1.0001598
1.0000263
1
1.1966119
1.4114487
1.2571559
1.0036015
1.0000004
1.0000006
1.0000172
1.0000004
1.4112367
1.4114555
1.2823266
1.0000006
1.0000006
1.0000007
1.0000775
1.0000053
1
1
1
1
1
1
1
1
1
1.0000001
1.0000001
1
1
1
1
1
1.0000014
1.0000312
1.0000416
1.0002892
1.0000144
1
1
1
1.0000698
1.0061933
1.0815033
1.0034502
1.0000002
1
1
1
1.0012142
1.1010889
1.363449
1.0020195
1.0000002
1.0000083
1.0000059
1.0000002
1.0265169
1.3391454
1.4103107
1.0326641
1.0000002
1.0002917
1.0000536
1
1.128008
1.4114558
1.4114468
1.1632755
1.0000002
1.0005696
1.000045
1
1.2755605
1.411459
1.4114558
1.2173414
1.0000004
1.0000093
1.0000638
1.0000014
1
1
1
1
1
1
1
1
1
1
1.0000001
1
1
1
1
1
1
1.0000031
1.0000604
1.0000341
1.0000012
1
1
1
1.0000012
1.0005527
1.01769
1.0010414
1.0000004
1
1
1
1.0000154
1.0076669
1.1800181
1.0056927
1.0000002
1.0000004
1.0000041
1.0000001
1.0017424
1.0907884
1.4076653
1.0440811
1.0001819
1.0004744
1.0000456
1
1.0230896
1.2864941
1.4114497
1.2069333
1.000752
1.0016897
1.0000513
1
1.0788098
1.411459
1.411459
1.4109454
1.0024817
1.0004176
1.0000321
1.0000001
1
1
1
1
1
1
1
1
1
1
1
1
1
1
1
1
1
1
1.0000113
1.0000003
1
1
1
1
1
1.0000002
1.0003205
1.0000097
1.0000001
1
1
1
1
1.0000001
1.012301
1.0022177
1
1
1.0000009
1
1.0000001
1.0014408
1.1160599
1.0201899
1.0004766
1.0004126
1.0000096
1
1.0000165
1.038579
1.2477009
1.0867642
1.0028891
1.0017124
1.0000064
1
1.0007068
1.148266
1.4006353
1.1937462
1.0059576
1.0009638
1.0000006
1
1
1
1
1
1
1
1
1
1
1
1
1
1
1
1
1
1
1
1.0000001
1
1
1
1
1
1
1
1
1
1
1
1
1
1
1
1.0000002
1.0001616
1
1
1
1
1
1
1.0012267
1.0014488
1.0028531
1.000353
1
1
1.000011
1.000087
1.0236782
1.0045085
1.0087111
1.0011286
1
1
1.0000419
1.0013084
1.0710592
1.0109926
1.0104112
1.0008839
1
1
1
1
1
1
1
1
1
1
1
1
1
1
1
1
1
1
1
1
1
1
1
1
1
1
1
1
1
1
1
1
1
1
1
1
1
1.0000009
1
1.0000007
1
1
1
1
1.0000001
1.0001774
1.0072196
1.0002932
1
1
1.0000686
1.0008824
1.0008153
1.0004778
1.0110474
1.0005954
1
1
1.0001893
1.0005422
1.0006051
1.0005407
1.0110349
1.0007827
1.0000001
1
1
1
1
1
1
1
1
1
1
1
1
1
1
1
1
1
1
1
1
1
1
1
1
1
1
1
1
1
1
1
1
1
1
1
1
1.0000023
1.0000758
1.0000012
1
1
1.0000024
1.0000242
1.0004341
1.000256
1.0061784
1.0001363
1
1
1.0002106
1.0026575
1.0021722
1.0010316
1.011047
1.0003164
1
1
1.0003971
1.0020665
1.0004908
1.0010771
1.0109482
1.0006311
1
1
1
1
1
1
1
1
1
1
1
1
1
1
1
1
1
1
1
1
1
1
1
1
1
1
1
1
1
1
1.0000001
1
1
1
1
1.000004
1.0000659
1.0000005
1.0000227
1.0000006
1
1
1.0000099
1.0004647
1.0022774
1.0000924
1.0015714
1.0000192
1
1
1.0002387
1.0028798
1.0028814
1.0010289
1.0073564
1.0001474
1.0000002
1
1.0004081
1.0025359
1.0005437
1.0023599
1.0104664
1.0007116
1
1
1
1
1
1
1
1
1
1
1
1
1
1
1
1
1
1
1
1
1
1
1
1
1
1
1
1
1
1
1
1
1
1
1
1.0000111
1.00017
1
1.000001
1
1
1
1.0000097
1.0006138
1.0028814
1.0000012
1.0000477
1.0000004
1
1
1.0001669
1.0024845
1.0028814
1.0005782
1.0023785
1.0000372