/*--------------------------------*- C++ -*----------------------------------*\
  =========                 |
  \\      /  F ield         | OpenFOAM: The Open Source CFD Toolbox
   \\    /   O peration     | Website:  https://openfoam.org
    \\  /    A nd           | Version:  13
     \\/     M anipulation  |
\*---------------------------------------------------------------------------*/
FoamFile
{
    format      ascii;
    class       volVectorField;
    location    "0.07";
    object      U;
}
// * * * * * * * * * * * * * * * * * * * * * * * * * * * * * * * * * * * * * //

dimensions      [0 1 -1 0 0 0 0];

internalField   nonuniform List<vector> 
51200
(
(0.053466283 0.012923432 0.011833721)
(0.058534972 0.0069946112 0.012048045)
(0.057204382 0.0031433428 0.012134532)
(0.056486064 0.00083451395 0.012165022)
(0.056486074 -0.00083401687 0.012165021)
(0.057204411 -0.0031429018 0.01213453)
(0.058535022 -0.0069942904 0.012048043)
(0.053466347 -0.012923362 0.011833719)
(0.12306054 0.031952073 0.033883045)
(0.13001713 0.014338399 0.033158236)
(0.12702189 0.0065064997 0.033151959)
(0.12561999 0.0017583768 0.033180757)
(0.12562001 -0.0017572246 0.033180752)
(0.12702195 -0.006505475 0.033151947)
(0.13001723 -0.014337624 0.03315822)
(0.12306068 -0.031951849 0.033883033)
(0.16701925 0.041735452 0.046566894)
(0.17235679 0.018127693 0.044341003)
(0.16848036 0.0082902805 0.044141353)
(0.16683605 0.0022594898 0.044225734)
(0.16683607 -0.0022579066 0.044225723)
(0.16848043 -0.0082888605 0.044141323)
(0.1723569 -0.018126573 0.044340957)
(0.16701943 -0.041735044 0.046566856)
(0.19415174 0.045545401 0.05253809)
(0.19675913 0.019866548 0.048843113)
(0.19254393 0.0091200507 0.04844055)
(0.19089509 0.0025043882 0.04858876)
(0.19089511 -0.0025025282 0.048588742)
(0.19254399 -0.0091183661 0.0484405)
(0.19675923 -0.019865167 0.048843035)
(0.19415193 -0.045544795 0.052538011)
(0.21012672 0.04600719 0.054388244)
(0.21002812 0.020417474 0.049529067)
(0.20582614 0.009372243 0.048976707)
(0.20428946 0.0025937049 0.049171554)
(0.20428948 -0.0025916724 0.049171531)
(0.2058262 -0.0093703838 0.048976638)
(0.2100282 -0.020415897 0.049528961)
(0.2101269 -0.046006384 0.05438812)
(0.21870083 0.044573922 0.053587909)
(0.21639874 0.020276736 0.047975544)
(0.21242393 0.0092786948 0.047347669)
(0.21104711 0.0025894045 0.047558425)
(0.21104713 -0.0025872679 0.047558397)
(0.21242397 -0.009276721 0.047347585)
(0.21639881 -0.020275009 0.047975414)
(0.21870099 -0.044572923 0.053587742)
(0.22242955 0.042055059 0.051043285)
(0.21855348 0.019738503 0.045146128)
(0.21492962 0.0089797185 0.044498746)
(0.21372508 0.0025289169 0.044687907)
(0.21372509 -0.0025267202 0.044687875)
(0.21492966 -0.0089776692 0.044498651)
(0.21855352 -0.019736662 0.045145984)
(0.22242968 -0.042053876 0.051043081)
(0.22301247 0.039036436 0.047551297)
(0.2181655 0.018916656 0.041602502)
(0.21496271 0.0085653897 0.04103419)
(0.21392746 0.0024346134 0.041170221)
(0.21392747 -0.0024323853 0.041170187)
(0.21496273 -0.0085632891 0.041034088)
(0.21816553 -0.018914726 0.041602354)
(0.22301257 -0.039035088 0.047551069)
(0.036061726 0.0033880491 0.0012473292)
(0.041654516 0.0037649633 0.0013529462)
(0.039913863 0.0022062883 0.0012841783)
(0.038611887 0.00070829218 0.001264065)
(0.038611954 -0.00070716007 0.001264064)
(0.039914074 -0.0022052937 0.0012841756)
(0.041654862 -0.0037642632 0.0013529449)
(0.03606207 -0.0033879355 0.0012473332)
(0.095924858 0.011329185 0.0075122224)
(0.10660209 0.01057206 0.0078039358)
(0.10211495 0.0059593357 0.007498794)
(0.099115573 0.0018797557 0.0074197641)
(0.099115732 -0.0018768218 0.0074197559)
(0.10211544 -0.0059567416 0.0074987677)
(0.10660293 -0.01057016 0.0078039176)
(0.095925776 -0.011328719 0.0075122228)
(0.14518651 0.01948903 0.015258972)
(0.15662385 0.01619742 0.01538194)
(0.15006977 0.0089239664 0.01476021)
(0.14607007 0.002788553 0.014624165)
(0.14607028 -0.0027842629 0.014624146)
(0.15007043 -0.0089201368 0.014760143)
(0.156625 -0.016194509 0.015381881)
(0.14518786 -0.019488106 0.015258942)
(0.18431466 0.026541424 0.022837715)
(0.19370699 0.020443019 0.022482664)
(0.18571594 0.011093986 0.02154439)
(0.18123114 0.0034487768 0.021368608)
(0.18123137 -0.0034435093 0.021368576)
(0.18571665 -0.011089236 0.021544273)
(0.19370828 -0.02043928 0.022482546)
(0.18431628 -0.026539975 0.022837624)
(0.21393309 0.031900553 0.029259603)
(0.21978534 0.023360759 0.028239348)
(0.21092424 0.012548241 0.02703625)
(0.20631417 0.0038926773 0.026837892)
(0.2063144 -0.0038867297 0.026837847)
(0.21092494 -0.012542824 0.027036079)
(0.21978664 -0.023356351 0.028239163)
(0.21393485 -0.03189855 0.029259428)
(0.23500154 0.035518303 0.034141944)
(0.23683898 0.025118318 0.032400183)
(0.22759106 0.013401624 0.031016311)
(0.22309014 0.0041586737 0.030807638)
(0.22309035 -0.0041522672 0.030807583)
(0.22759171 -0.013395731 0.031016092)
(0.2368402 -0.025113375 0.03239993)
(0.23500332 -0.03551574 0.034141673)
(0.24868549 0.037608365 0.037468178)
(0.24674802 0.025899343 0.03503841)
(0.23750081 0.013771208 0.033572738)
(0.23325119 0.0042832406 0.033361557)
(0.23325139 -0.0042765346 0.033361492)
(0.23750139 -0.013764984 0.033572482)
(0.24674911 -0.025893979 0.035038099)
(0.2486872 -0.037605259 0.037467806)
(0.25613203 0.038432213 0.039380066)
(0.2511419 0.025847526 0.036307293)
(0.2421801 0.013759882 0.034889841)
(0.23826367 0.0042966454 0.034681854)
(0.23826385 -0.004289754 0.034681778)
(0.24218061 -0.013753433 0.034889565)
(0.25114285 -0.025841836 0.03630694)
(0.25613362 -0.03842861 0.039379618)
(0.016302121 0.0014892701 4.0161341e-08)
(0.023399312 0.0028485765 8.9116995e-05)
(0.024103846 0.0019309213 9.0161674e-05)
(0.023451647 0.00064538275 8.5336695e-05)
(0.023451832 -0.00064365212 8.5334489e-05)
(0.024104429 -0.0019294151 9.015842e-05)
(0.023400221 -0.0028475727 8.9115896e-05)
(0.016302923 -0.0014891466 4.3711714e-08)
(0.052384006 0.005103038 0.0019228865)
(0.069123303 0.0080871765 0.0024025979)
(0.06997665 0.0052776712 0.0022977245)
(0.068118909 0.0017550826 0.0022094485)
(0.068119364 -0.0017504593 0.0022094325)
(0.069978096 -0.0052736159 0.0022976895)
(0.069125665 -0.0080843484 0.0024025851)
(0.052386296 -0.0051024375 0.0019228954)
(0.089825809 0.0096478146 0.0053898641)
(0.11189925 0.012865095 0.0062253233)
(0.11198421 0.008126026 0.0059312785)
(0.10908672 0.0026839953 0.0057170345)
(0.10908735 -0.0026770795 0.0057169981)
(0.11198621 -0.0081198986 0.0059311894)
(0.11190265 -0.012860654 0.0062252773)
(0.089829358 -0.0096465487 0.0053898597)
(0.12642034 0.014748591 0.010054032)
(0.15011428 0.017033613 0.011070367)
(0.14890155 0.010456754 0.010515436)
(0.14518967 0.0034321545 0.01015134)
(0.14519039 -0.0034235033 0.01015128)
(0.14890385 -0.010449008 0.010515275)
(0.15011831 -0.017027792 0.011070265)
(0.12642485 -0.014746537 0.010053985)
(0.16017854 0.019858479 0.015260109)
(0.18263342 0.020446037 0.016201593)
(0.17993538 0.012256633 0.01534045)
(0.17566007 0.0040031111 0.014826229)
(0.17566081 -0.0039931974 0.014826145)
(0.17993775 -0.012247662 0.015340208)
(0.18263774 -0.020439057 0.016201412)
(0.16018368 -0.019855565 0.015259986)
(0.18957745 0.024550655 0.020474515)
(0.20892525 0.02300989 0.021083152)
(0.20480253 0.01353267 0.019893715)
(0.20020429 0.0044058406 0.01924383)
(0.200205 -0.0043950414 0.019243723)
(0.20480483 -0.013522797 0.019893391)
(0.20892957 -0.023001952 0.021082878)
(0.18958292 -0.024546848 0.020474283)
(0.2136347 0.02855781 0.025332682)
(0.22901295 0.024679285 0.025364237)
(0.22366036 0.014314443 0.023847771)
(0.21894618 0.0046546169 0.023088534)
(0.21894684 -0.0046432214 0.023088409)
(0.2236625 -0.014303922 0.023847372)
(0.22901705 -0.024670569 0.025363865)
(0.21364024 -0.028553111 0.025332316)
(0.23183533 0.031573824 0.029338362)
(0.24334797 0.025460964 0.028690967)
(0.23696389 0.014656111 0.026908344)
(0.23230288 0.0047684422 0.02609335)
(0.23230348 -0.0047566678 0.026093213)
(0.23696581 -0.014645142 0.026907889)
(0.24335172 -0.025451626 0.028690504)
(0.23184074 -0.031568291 0.029337875)
(0.014202312 0.00059033095 7.7851769e-05)
(0.020919334 0.0015858806 0.00010753791)
(0.022441432 0.0012404488 0.00010028354)
(0.022227284 0.00043801711 8.9891944e-05)
(0.022227636 -0.00043557936 8.9889164e-05)
(0.022442502 -0.0012383724 0.00010028094)
(0.020920914 -0.0015845855 0.00010753974)
(0.0142036 -0.00059022138 7.7857042e-05)
(0.043843128 0.0022578725 0.00077554621)
(0.060467734 0.0048532101 0.001057829)
(0.063898829 0.0036416738 0.0010136307)
(0.063204772 0.001276684 0.00092365968)
(0.063205652 -0.0012700985 0.00092363856)
(0.063901549 -0.0036360064 0.0010135959)
(0.060471939 -0.0048494768 0.0010578355)
(0.043846894 -0.0022572052 0.00077557029)
(0.074060018 0.004578911 0.0022449694)
(0.097392439 0.0081544829 0.0028952624)
(0.10169822 0.0058989036 0.0027644254)
(0.10046688 0.0020516004 0.0025429667)
(0.10046812 -0.0020416588 0.0025429179)
(0.10170209 -0.0058902495 0.0027643314)
(0.097398661 -0.0081485293 0.0028952577)
(0.074066003 -0.0045774017 0.0022450004)
(0.10423476 0.0074728266 0.0044788437)
(0.13143278 0.011359944 0.005500689)
(0.13573906 0.0079404641 0.0052240799)
(0.13394115 0.0027398975 0.0048367286)
(0.13394259 -0.002727361 0.0048366467)
(0.13574362 -0.007929423 0.0052239037)
(0.13144041 -0.011352043 0.005500651)
(0.10424259 -0.0074702824 0.0044788567)
(0.13357634 0.010768866 0.0073545942)
(0.16219089 0.014311857 0.0086430099)
(0.1658244 0.0096972187 0.0081583825)
(0.16347633 0.0033223819 0.0075917138)
(0.16347785 -0.0033079214 0.0075915975)
(0.16582928 -0.0096843338 0.0081581088)
(0.16219934 -0.01430229 0.0086429121)
(0.13358557 -0.010765169 0.0073545543)
(0.16116479 0.014248293 0.010682044)
(0.18925054 0.01685521 0.012052959)
(0.19174915 0.011117006 0.011304276)
(0.18891175 0.0037864707 0.010563559)
(0.18891326 -0.0037706409 0.01056341)
(0.19175403 -0.011102739 0.011303898)
(0.18925932 -0.016844245 0.012052776)
(0.16117497 -0.014243382 0.01068191)
(0.18605909 0.017668575 0.01423039)
(0.21231843 0.018856952 0.015449685)
(0.2133932 0.012173038 0.014399231)
(0.21016025 0.0041276216 0.013508043)
(0.21016168 -0.0041108615 0.013507868)
(0.21339787 -0.012157766 0.014398753)
(0.21232712 -0.018844833 0.015449402)
(0.18606978 -0.017662441 0.014230125)
(0.20742037 0.020705663 0.017611791)
(0.23134795 0.020245304 0.018568712)
(0.23078266 0.012868166 0.017203552)
(0.22727143 0.004349715 0.016215822)
(0.22727275 -0.0043323627 0.016215627)
(0.23078698 -0.01285219 0.017202988)
(0.2313562 -0.020232245 0.018568319)
(0.20743119 -0.020698373 0.017611402)
(0.011500321 0.00032861647 1.5424567e-05)
(0.018055076 0.00097320028 4.4156959e-05)
(0.020341922 0.00080040977 4.4008946e-05)
(0.020637709 0.0002870092 3.5410238e-05)
(0.020638328 -0.00028357817 3.540716e-05)
(0.020343737 -0.00079756424 4.4006315e-05)
(0.018057637 -0.00097154793 4.4160428e-05)
(0.011502297 -0.00032851349 1.5429589e-05)
(0.036262296 0.0012647917 0.00042648889)
(0.052982659 0.0030225177 0.00064424119)
(0.058570088 0.0024256435 0.00061890059)
(0.05918896 0.00087344618 0.00053227965)
(0.059190526 -0.00086414662 0.00053225142)
(0.058574772 -0.0024178209 0.00061885754)
(0.052989572 -0.0030176588 0.0006442481)
(0.036268174 -0.0012640215 0.00042650541)
(0.062109422 0.0025923204 0.0012807052)
(0.086257989 0.0051688082 0.0017695214)
(0.09397658 0.0040397015 0.0016867541)
(0.094664218 0.0014515242 0.0014744814)
(0.094666441 -0.0014374497 0.0014744128)
(0.09398334 -0.004027699 0.0016866336)
(0.086268349 -0.0051609607 0.0017695101)
(0.062118881 -0.0025904815 0.0012807116)
(0.08847366 0.0043000768 0.00258801)
(0.11761258 0.0073618904 0.0033721973)
(0.12643316 0.0055950974 0.0031916274)
(0.12697233 0.002001265 0.0028214127)
(0.12697495 -0.00198348 0.0028212939)
(0.12644126 -0.0055797268 0.0031913971)
(0.11762545 -0.0073513757 0.0033721405)
(0.088486183 -0.0042968877 0.0025879746)
(0.11475541 0.0063303245 0.0043039526)
(0.14677638 0.0095175777 0.0053457294)
(0.15581998 0.0070351802 0.0050222064)
(0.15604278 0.0025025268 0.0044803065)
(0.15604558 -0.0024819822 0.0044801344)
(0.15582877 -0.0070171925 0.0050218441)
(0.14679087 -0.0095047567 0.0053455966)
(0.11477037 -0.0063256097 0.0043038371)
(0.14032148 0.0085961687 0.0063625779)
(0.17349865 0.011531219 0.0075655449)
(0.18203403 0.0083055134 0.0070530363)
(0.18182679 0.0029377601 0.0063419397)
(0.18182961 -0.0029152545 0.0063417164)
(0.18204299 -0.0082855593 0.0070525314)
(0.17351397 -0.011516452 0.0075653078)
(0.14033822 -0.0085898368 0.006362339)
(0.16451666 0.010970867 0.008661363)
(0.19759137 0.013292648 0.0098801003)
(0.20500663 0.0093641263 0.0091413284)
(0.20430976 0.0032945709 0.0082802807)
(0.20431248 -0.0032707456 0.0082800128)
(0.20501537 -0.0093427459 0.0091406822)
(0.19760681 -0.013276276 0.0098797402)
(0.16453452 -0.010962901 0.0086609592)
(0.18669868 0.013241911 0.010975172)
(0.21899788 0.014726363 0.012152314)
(0.22472472 0.010189123 0.011157589)
(0.22353393 0.0035674781 0.01019279)
(0.22353646 -0.0035428333 0.010192488)
(0.22473293 -0.010166751 0.011156817)
(0.21901286 -0.014708685 0.012151816)
(0.18671707 -0.013232399 0.010974621)
(0.010241742 0.00018712972 1.4191719e-05)
(0.016506047 0.00057789619 3.2303684e-05)
(0.019188272 0.00048566772 3.1515672e-05)
(0.019857226 0.00017603286 2.3882619e-05)
(0.019858261 -0.00017116247 2.387958e-05)
(0.019191197 -0.00048175912 3.1510394e-05)
(0.016510005 -0.00057583029 3.2305246e-05)
(0.010244638 -0.00018702621 1.4192057e-05)
(0.032336046 0.00073340109 0.00025625079)
(0.048595451 0.0018390778 0.00041397079)
(0.055415755 0.0015332468 0.0004006158)
(0.057057914 0.00056425945 0.00032822609)
(0.057060556 -0.00055104304 0.00032818711)
(0.055423376 -0.0015224301 0.00040054696)
(0.048606241 -0.0018328526 0.00041394034)
(0.032344775 -0.00073250062 0.00025621953)
(0.055518121 0.0015215447 0.00077098041)
(0.079418635 0.0032066204 0.0011399796)
(0.089222718 0.0026303203 0.0010938407)
(0.091481652 0.00097143455 0.00091629315)
(0.091485433 -0.00095142187 0.00091619241)
(0.089233821 -0.0026136585 0.0010936522)
(0.079434939 -0.0031964089 0.0011398681)
(0.055532303 -0.0015193036 0.00077085883)
(0.079371018 0.0025550799 0.0015702797)
(0.10881435 0.0046582385 0.0021804659)
(0.12055223 0.0037445563 0.0020746058)
(0.12310166 0.001381662 0.0017645667)
(0.12310615 -0.0013563721 0.001764386)
(0.12056567 -0.0037231616 0.0020742495)
(0.10883478 -0.0046443917 0.0021802268)
(0.079389963 -0.0025511019 0.0015700115)
(0.10345315 0.0038133476 0.0026358336)
(0.13661511 0.0061496306 0.0034728834)
(0.14934366 0.0048358476 0.0032757668)
(0.15189841 0.0017783972 0.0028211452)
(0.15190327 -0.0017491974 0.0028208767)
(0.14935841 -0.00481077 0.0032752094)
(0.13663833 -0.0061325929 0.0034724763)
(0.10347599 -0.0038073745 0.0026353663)
(0.12730017 0.0052593462 0.003936768)
(0.16266904 0.007620199 0.0049463865)
(0.17554462 0.0058624101 0.0046248093)
(0.17786801 0.0021458801 0.0040266348)
(0.17787294 -0.0021139265 0.0040262797)
(0.17555985 -0.0058345739 0.0046240349)
(0.16269384 -0.0076004466 0.0049457817)
(0.12732594 -0.0052512345 0.0039360525)
(0.15043093 0.0068310379 0.005421958)
(0.18687003 0.0089998172 0.0065166312)
(0.19912064 0.0067869367 0.006041216)
(0.20102999 0.0024709438 0.0053137341)
(0.20103479 -0.0024371717 0.0053133008)
(0.19913566 -0.0067571179 0.0060402261)
(0.18689532 -0.0089778213 0.0065158162)
(0.1504587 -0.0068207494 0.0054209542)
(0.17235997 0.0084088748 0.0069700402)
(0.20920051 0.010233997 0.0081176952)
(0.22005978 0.0075820229 0.0074566138)
(0.22143526 0.002744648 0.0066348973)
(0.22143978 -0.0027097907 0.0066344014)
(0.22007409 -0.007550851 0.0074554287)
(0.20922537 -0.010210182 0.0081166653)
(0.17238884 -0.008396514 0.0069687963)
(0.0094081977 0.00011896343 7.4728573e-06)
(0.015451203 0.00035893104 2.0918263e-05)
(0.018376041 0.00029797154 2.1244217e-05)
(0.019314946 0.00010815556 1.553351e-05)
(0.019316675 -0.00010113525 1.5530978e-05)
(0.018380759 -0.00029254298 2.1230816e-05)
(0.015457363 -0.0003564012 2.0911538e-05)
(0.0094124865 -0.00011881911 7.4602006e-06)
(0.029797929 0.00046008764 0.00016029138)
(0.045646458 0.0011526176 0.00027686542)
(0.05323008 0.00096984254 0.00027285378)
(0.055625192 0.00036259432 0.00021777736)
(0.055629618 -0.0003435539 0.00021771551)
(0.05324243 -0.00095472917 0.00027270776)
(0.045663336 -0.0011447544 0.00027669825)
(0.029810975 -0.00045897587 0.00016011356)
(0.051298368 0.00095128917 0.00048791745)
(0.074831318 0.0020296729 0.00076355252)
(0.085944861 0.001702179 0.000743898)
(0.089382758 0.00064302051 0.00060833963)
(0.089389121 -0.00061421468 0.00060816959)
(0.085962935 -0.001678822 0.00074351453)
(0.074856926 -0.0020165199 0.00076308361)
(0.051319693 -0.00094851231 0.00048740562)
(0.073555714 0.001600169 0.0010004108)
(0.1028866 0.0029837669 0.0014629808)
(0.11649192 0.002476256 0.0014108384)
(0.12058649 0.00093853756 0.0011735682)
(0.1205941 -0.0009021828 0.001173254)
(0.1165139 -0.0024462038 0.0014101349)
(0.10291882 -0.0029656606 0.001462102)
(0.073584345 -0.0015951935 0.0009994305)
(0.096203166 0.0023999652 0.0016887369)
(0.12969379 0.0039939892 0.0023359142)
(0.14483907 0.0032672359 0.0022306072)
(0.14923909 0.0012374892 0.0018820499)
(0.14924735 -0.0011955863 0.0018815744)
(0.14486335 -0.0032319772 0.0022295325)
(0.12973057 -0.0039714475 0.0023345606)
(0.096237827 -0.0023924234 0.0016871947)
(0.11886042 0.0033349504 0.0025370137)
(0.1551501 0.0050278899 0.0033395577)
(0.17095715 0.0040473911 0.00315864)
(0.17535283 0.0015280746 0.0026991886)
(0.17536128 -0.0014823207 0.0026985512)
(0.17098237 -0.0040082554 0.0031571753)
(0.15518953 -0.0050015216 0.0033377055)
(0.1188997 -0.0033246189 0.0025348494)
(0.14113463 0.0043750213 0.0035183949)
(0.17919009 0.0060447537 0.0044251778)
(0.19482458 0.0047894832 0.004147438)
(0.19895461 0.0017994434 0.0035872914)
(0.19896289 -0.001751215 0.0035865047)
(0.19484964 -0.0047475985 0.0041455951)
(0.17923053 -0.0060151983 0.0044228462)
(0.14117712 -0.0043618154 0.0035155834)
(0.16262316 0.005453419 0.0045654963)
(0.20181723 0.0070107095 0.0055603344)
(0.21642625 0.005470027 0.0051582101)
(0.22008972 0.0020428695 0.0045224405)
(0.22009757 -0.0019932478 0.0045215314)
(0.21645032 -0.0054263144 0.0051560298)
(0.20185722 -0.0069785705 0.0055575706)
(0.16266753 -0.0054374427 0.0045621619)
(0.0088861349 7.9707305e-05 4.7843936e-06)
(0.014751866 0.00023254135 1.4202251e-05)
(0.01780713 0.00019025558 1.4970038e-05)
(0.018925116 6.9900453e-05 1.0922482e-05)
(0.01892803 -5.957331e-05 1.0920458e-05)
(0.017814881 -0.00018261086 1.4935769e-05)
(0.014761716 -0.00022957731 1.4169016e-05)
(0.0088927482 -7.9433886e-05 4.7328619e-06)
(0.028184199 0.00030311146 0.0001040925)
(0.043667453 0.00074936875 0.00018975029)
(0.051685656 0.00063192967 0.00019276548)
(0.054593512 0.00024144522 0.00015401401)
(0.054600984 -0.00021349415 0.00015389512)
(0.051705984 -0.00061052472 0.00019241455)
(0.043694494 -0.00073971991 0.0001892025)
(0.028204406 -0.00030168021 0.00010352096)
(0.048587827 0.00062258056 0.00031958598)
(0.07172317 0.0013265077 0.00052576114)
(0.083610708 0.0011262897 0.00052654517)
(0.087869187 0.00043655456 0.00043080979)
(0.087879947 -0.00039436075 0.00043047331)
(0.083640503 -0.0010931174 0.00052565062)
(0.071764236 -0.001309914 0.00052431545)
(0.048620928 -0.0006191674 0.00031804853)
(0.069785101 0.0010458947 0.00065978817)
(0.098828374 0.0019641621 0.0010114674)
(0.11357314 0.0016631745 0.001000635)
(0.11876766 0.00064824132 0.00083247225)
(0.11878056 -0.00059512613 0.00083184385)
(0.11360944 -0.0016204335 0.00099903472)
(0.098880072 -0.0019408413 0.001008858)
(0.06982959 -0.001039822 0.00065695627)
(0.091455781 0.0015722723 0.001120979)
(0.12489483 0.0026531231 0.0016218743)
(0.14155872 0.0022281479 0.0015862442)
(0.1473047 0.00086894098 0.0013383615)
(0.14731875 -0.0008079015 0.0013374063)
(0.14159888 -0.0021779877 0.0015838552)
(0.12495385 -0.0026236224 0.0016179811)
(0.09150966 -0.001563036 0.0011166619)
(0.11326961 0.0021957803 0.0016952298)
(0.14984854 0.0033763751 0.0023301717)
(0.16755223 0.0028041042 0.0022544236)
(0.17350054 0.0010906601 0.001926619)
(0.17351495 -0.0010242384 0.0019253352)
(0.16759404 -0.0027484686 0.0022512342)
(0.14991184 -0.0033414393 0.0023249977)
(0.11333067 -0.0021830346 0.0016893514)
(0.13488501 0.0029018518 0.0023680441)
(0.17364741 0.0041106234 0.0031065439)
(0.19153959 0.0033729701 0.002975039)
(0.19738354 0.0013055517 0.0025741079)
(0.1973977 -0.0012358088 0.0025725208)
(0.19158126 -0.0033135236 0.0029710998)
(0.17371233 -0.0040710982 0.0031002026)
(0.13495101 -0.0028854168 0.0023606326)
(0.15594795 0.0036515138 0.0030997727)
(0.19630802 0.0048355326 0.003933356)
(0.21350494 0.003917502 0.00372303)
(0.21899296 0.0015066465 0.0032659276)
(0.21900644 -0.0014351998 0.0032640923)
(0.2135451 -0.00385561 0.003718448)
(0.19637228 -0.0047922638 0.0039260431)
(0.15601681 -0.0036314473 0.0030911343)
(0.008534467 5.7373997e-05 3.2583038e-06)
(0.014265551 0.000161548 1.0002163e-05)
(0.017390658 0.00013327211 1.113855e-05)
(0.018625629 5.1367777e-05 8.4316038e-06)
(0.018630727 -3.5754115e-05 8.4216568e-06)
(0.017403945 -0.00012220663 1.10449e-05)
(0.014282115 -0.00015815437 9.8887549e-06)
(0.0085453539 -5.6712089e-05 3.1179307e-06)
(0.027094784 0.0002126997 7.1829623e-05)
(0.04228406 0.0005174828 0.00013555136)
(0.05054823 0.00044187427 0.00014309132)
(0.053797635 0.00017631308 0.00011739774)
(0.053810665 -0.00013419919 0.00011712944)
(0.050582997 -0.00041076644 0.00014221807)
(0.042329401 -0.00050571848 0.00013399567)
(0.027128015 -0.00021059851 7.0230807e-05)
(0.046752924 0.0004317015 0.00022134361)
(0.069538381 0.00091445987 0.00037709128)
(0.081880012 0.00078869884 0.00039120417)
(0.086694401 0.0003182647 0.00032753264)
(0.086713132 -0.0002549136 0.00032679428)
(0.081930876 -0.00074043282 0.00038903518)
(0.069607023 -0.00089352446 0.00037314827)
(0.04680724 -0.00042731105 0.00021714334)
(0.067222676 0.00072100117 0.0004584558)
(0.095955555 0.0013551587 0.0007280105)
(0.11138951 0.0011689342 0.00074451384)
(0.11734251 0.00047310953 0.00063226047)
(0.11736492 -0.00039367473 0.00063090224)
(0.11145136 -0.0011067611 0.00074071382)
(0.096041665 -0.0013250282 0.00072107012)
(0.067295443 -0.00071353856 0.00045085781)
(0.08821237 0.0010819663 0.00078167242)
(0.12146633 0.0018361185 0.0011717123)
(0.13907465 0.0015748699 0.0011827143)
(0.14576668 0.00063637503 0.0010165844)
(0.14579108 -0.00054549272 0.001014541)
(0.13914295 -0.0015020056 0.0011771502)
(0.12156426 -0.0017973364 0.0011615613)
(0.088300137 -0.001070795 0.00077028269)
(0.10942268 0.0015130202 0.0011869545)
(0.14601522 0.0023485868 0.0016905921)
(0.16493039 0.0019966689 0.001685781)
(0.171993 0.00080314538 0.001465218)
(0.17201801 -0.00070473607 0.001462493)
(0.16500136 -0.0019160448 0.0016784851)
(0.14611984 -0.0023020675 0.0016773334)
(0.10952166 -0.001497644 0.001171709)
(0.13054424 0.0020072421 0.0016662032)
(0.16957604 0.0028792039 0.0022653402)
(0.18894953 0.0024231758 0.0022331229)
(0.19605177 0.00096831197 0.0019623242)
(0.19607633 -0.00086554326 0.001958976)
(0.18902013 -0.0023373142 0.0022242599)
(0.16968289 -0.0028260836 0.0022493391)
(0.13065067 -0.0019873416 0.0016473174)
(0.1512547 0.002541002 0.0021951635)
(0.19217616 0.0034158919 0.0028859463)
(0.21111899 0.0028428467 0.0028071654)
(0.21797984 0.0011269817 0.0024969251)
(0.21800319 -0.0010223284 0.0024930732)
(0.21118691 -0.0027538182 0.0027970162)
(0.1922815 -0.0033573716 0.0028677754)
(0.15136509 -0.0025165559 0.0021734295)
(0.0082799032 4.4628411e-05 2.6788106e-06)
(0.013907341 0.00012133203 7.4356435e-06)
(0.017069247 0.00010593434 8.7041865e-06)
(0.018381296 4.5569093e-05 6.9263002e-06)
(0.018390314 -2.0892879e-05 6.8988935e-06)
(0.017092722 -8.9080639e-05 8.4769153e-06)
(0.013937189 -0.00011717968 7.2992698e-06)
(0.0083006716 -4.3133093e-05 2.219512e-06)
(0.026307305 0.00015947264 5.4766905e-05)
(0.041262998 0.0003840154 0.00010232368)
(0.04966723 0.00034225121 0.00011163787)
(0.053145482 0.00014890591 9.5213378e-05)
(0.053168517 -8.2742914e-05 9.4533861e-05)
(0.049728636 -0.00029490368 0.00010929001)
(0.041343229 -0.00036843663 9.7672531e-05)
(0.026368665 -0.00015607454 5.0266467e-05)
(0.045427749 0.00031818407 0.00016722667)
(0.067922247 0.0006736787 0.00028523867)
(0.080533778 0.00060179556 0.00030526973)
(0.085725698 0.00026125488 0.00026455499)
(0.085758751 -0.00016228837 0.00026274398)
(0.080623248 -0.00052864058 0.00029961148)
(0.068042463 -0.00064548068 0.00027418495)
(0.045526543 -0.00031239031 0.00015584613)
(0.065372474 0.00052595845 0.00034452531)
(0.09382376 0.0009932672 0.00055153219)
(0.10968087 0.00088280908 0.00058130241)
(0.11615601 0.00038050987 0.0005093522)
(0.11619548 -0.00025717278 0.00050609999)
(0.10978916 -0.00078900294 0.00057165552)
(0.093973298 -0.00095237876 0.00053308209)
(0.065503013 -0.00051701906 0.00032440558)
(0.085868594 0.00078457475 0.00058539736)
(0.11891064 0.001341761 0.00088913061)
(0.13711483 0.0011817061 0.00092433765)
(0.14446758 0.00050445272 0.0008174993)
(0.14451043 -0.00036427604 0.00081270653)
(0.13723386 -0.001072311 0.00091056491)
(0.11907935 -0.0012888699 0.00086314158)
(0.086023886 -0.00077179607 0.00055582376)
(0.10663691 0.0010941605 0.00088715433)
(0.14313974 0.0017146084 0.001285439)
(0.16283822 0.0014933872 0.0013194049)
(0.17069124 0.00063053382 0.0011770604)
(0.17073504 -0.00047984326 0.0011707842)
(0.1629613 -0.0013730074 0.001301757)
(0.14331854 -0.0016509222 0.0012524005)
(0.10680964 -0.0010768929 0.00084829088)
(0.12738921 0.0014514152 0.0012446345)
(0.16649605 0.0021039984 0.0017269181)
(0.18684984 0.0018115615 0.0017512926)
(0.19485979 0.00075590749 0.0015759256)
(0.19490268 -0.00059977778 0.0015683384)
(0.18697169 -0.0016841494 0.0017302961)
(0.16667719 -0.0020310847 0.0016878594)
(0.1275724 -0.0014291314 0.0011973224)
(0.14782457 0.0018412623 0.0016418957)
(0.18901558 0.0025028192 0.0022077168)
(0.20914061 0.0021291682 0.0022070192)
(0.21701001 0.00087760951 0.0020051522)
(0.21705066 -0.00071997194 0.0019965555)
(0.20925728 -0.0019979501 0.0021834468)
(0.18919275 -0.0024223845 0.002164126)
(0.14801198 -0.0018138142 0.001588224)
(0.0080721775 3.9817012e-05 2.9475921e-06)
(0.013621184 0.00010142115 6.1823945e-06)
(0.016807348 9.7148637e-05 7.2319632e-06)
(0.018175103 4.9147956e-05 5.9546429e-06)
(0.01819254 -8.6337945e-06 5.7573693e-06)
(0.016853636 -6.680107e-05 6.4396246e-06)
(0.013697952 -9.0735495e-05 3.2131537e-06)
(0.0081177314 -3.7340951e-05 1.0262769e-06)
(0.025672679 0.00013294763 5.0865484e-05)
(0.040450953 0.00031429923 8.4153267e-05)
(0.048948854 0.00030043009 9.1671119e-05)
(0.052592547 0.00014964144 8.0629208e-05)
(0.052636584 -4.1429467e-05 7.8688877e-05)
(0.049066432 -0.00021446656 8.4225358e-05)
(0.040610834 -0.00025604744 6.8938766e-05)
(0.025802166 -0.00010220172 3.7729099e-05)
(0.044370332 0.00025717084 0.00014941681)
(0.06664114 0.00054274564 0.00023306229)
(0.079434523 0.00051272846 0.0002501616)
(0.084899547 0.00025030202 0.00022305316)
(0.084962095 -8.981611e-05 0.00021825283)
(0.079602561 -0.00038869388 0.00023327136)
(0.066867163 -0.0004722097 0.00020322026)
(0.044572547 -0.00022642196 0.00012017166)
(0.063909001 0.00041589891 0.00029952505)
(0.092138008 0.00078910599 0.00044849055)
(0.10828215 0.00073399643 0.00047580738)
(0.11513566 0.00035044183 0.0004281478)
(0.11520958 -0.00015213479 0.0004200495)
(0.10848236 -0.00058031378 0.00044940187)
(0.092411728 -0.00070617944 0.00040262933)
(0.064169197 -0.00038390724 0.00024836038)
(0.084028467 0.00061017509 0.00049791652)
(0.11689249 0.001053473 0.00072027972)
(0.13550385 0.00096327737 0.00075602157)
(0.143337 0.00044960117 0.00068547311)
(0.14341642 -0.00022618493 0.00067410377)
(0.13572102 -0.00078807666 0.00072080328)
(0.11719606 -0.00095864335 0.00065829423)
(0.084330627 -0.0005764661 0.00042329187)
(0.10446261 0.00084060928 0.00074130781)
(0.14086926 0.0013336738 0.0010382744)
(0.16110763 0.0011986737 0.0010787112)
(0.16953837 0.0005471693 0.00098494033)
(0.16961869 -0.00030918945 0.00097060238)
(0.16132955 -0.001009213 0.0010357969)
(0.14118669 -0.0012280073 0.00096144908)
(0.10479124 -0.00080494478 0.00064452108)
(0.12493689 0.001105721 0.0010254141)
(0.16406069 0.0016252466 0.0013919487)
(0.18509695 0.0014373791 0.001431781)
(0.19377516 0.00064223739 0.0013164875)
(0.19385298 -0.0003980468 0.001299661)
(0.18531426 -0.0012397915 0.0013826155)
(0.1643784 -0.0015103728 0.0013027757)
(0.12527809 -0.0010677574 0.00090941411)
(0.14516443 0.0013953178 0.0013379658)
(0.18650885 0.0019243413 0.0017775281)
(0.20746633 0.001675805 0.0018052365)
(0.21608507 0.00073359844 0.0016724713)
(0.21615801 -0.00048957201 0.0016538396)
(0.20767225 -0.0014750128 0.0017516178)
(0.18681591 -0.0018021403 0.0016794952)
(0.14550645 -0.001355085 0.0012084112)
(0.0078499362 4.173054e-05 4.6460117e-06)
(0.013366414 0.00010355124 6.0332806e-06)
(0.016583508 0.00010539112 6.3157837e-06)
(0.017998754 6.4326516e-05 5.1548756e-06)
(0.018027402 9.124954e-06 4.8535205e-06)
(0.016678194 -4.0227893e-05 6.5862834e-06)
(0.013500439 -7.2305972e-05 8.5989844e-06)
(0.0079760041 -3.6136016e-05 -1.1147363e-06)
(0.025027999 0.00012975447 6.1921357e-05)
(0.039740762 0.00030719953 7.866197e-05)
(0.048335438 0.00030849428 7.9957189e-05)
(0.052117266 0.00018273176 6.9837084e-05)
(0.052194179 1.0245524e-05 6.2907607e-05)
(0.048546008 -0.00011729599 4.6048514e-05)
(0.040028763 -0.00010059351 6.8582858e-05)
(0.025361738 1.5404059e-06 3.0184731e-05)
(0.043344008 0.00024235733 0.00017181442)
(0.065534473 0.00051124192 0.00021359446)
(0.078496238 0.00050472203 0.00021726924)
(0.084185325 0.00028938885 0.00019279378)
(0.084295259 -9.4582353e-06 0.00017643363)
(0.078787453 -0.00026188565 0.00015011272)
(0.065941562 -0.00030632411 0.00016938779)
(0.043831305 -0.00011874214 0.00010529414)
(0.062540973 0.0003776329 0.00032690745)
(0.090696301 0.00071806677 0.00040508021)
(0.10708782 0.00069535346 0.00041180703)
(0.11424691 0.0003849985 0.00036960191)
(0.11437664 -4.5402185e-05 0.00034391774)
(0.10743022 -0.00041507229 0.00032115603)
(0.09118579 -0.00051091376 0.00032195579)
(0.063134135 -0.00025921022 0.00021098844)