/*--------------------------------*- C++ -*----------------------------------*\
  =========                 |
  \\      /  F ield         | OpenFOAM: The Open Source CFD Toolbox
   \\    /   O peration     | Website:  https://openfoam.org
    \\  /    A nd           | Version:  13
     \\/     M anipulation  |
\*---------------------------------------------------------------------------*/
FoamFile
{
    format      ascii;
    class       volVectorField;
    location    "0.001";
    object      D;
}
// * * * * * * * * * * * * * * * * * * * * * * * * * * * * * * * * * * * * * //

dimensions      [0 1 0 0 0 0 0];

internalField   nonuniform List<vector> 
17280
(
(0 4.11791e-11 7.13901e-11)
(0 3.33136e-11 8.46309e-11)
(0 1.13324e-11 9.57403e-11)
(0 -1.33046e-11 9.62492e-11)
(0 -2.89553e-11 8.66567e-11)
(0 -4.6927e-11 6.71265e-11)
(0 4.1202e-11 7.19515e-11)
(0 3.31442e-11 8.52567e-11)
(0 1.12873e-11 9.63142e-11)
(0 -1.31704e-11 9.68218e-11)
(0 -2.88183e-11 8.72336e-11)
(0 -4.6788e-11 6.77301e-11)
(0 4.09009e-11 7.3018e-11)
(0 3.29989e-11 8.61789e-11)
(0 1.12482e-11 9.71915e-11)
(0 -1.28801e-11 9.76959e-11)
(0 -2.85623e-11 8.81145e-11)
(0 -4.65939e-11 6.86164e-11)
(0 4.09343e-11 7.49054e-11)
(0 3.2721e-11 8.82011e-11)
(0 1.11793e-11 9.91273e-11)
(0 -1.26277e-11 9.96288e-11)
(0 -2.83141e-11 9.00523e-11)
(0 -4.64066e-11 7.05639e-11)
(0 4.11364e-11 7.77246e-11)
(0 3.2373e-11 9.12816e-11)
(0 1.10897e-11 1.02104e-10)
(0 -1.23919e-11 1.02603e-10)
(0 -2.80596e-11 9.30383e-11)
(0 -4.61979e-11 7.35386e-11)
(0 4.14344e-11 8.16364e-11)
(0 3.19689e-11 9.55166e-11)
(0 1.09798e-11 1.06221e-10)
(0 -1.21746e-11 1.06718e-10)
(0 -2.77929e-11 9.71763e-11)
(0 -4.59221e-11 7.76975e-11)
(0 1.15094e-10 1.98148e-10)
(0 6.9655e-11 2.33165e-10)
(0 2.36462e-11 2.5812e-10)
(0 -2.38751e-11 2.59174e-10)
(0 -5.40497e-11 2.37873e-10)
(0 -9.3924e-11 1.97347e-10)
(0 1.15058e-10 1.98782e-10)
(0 6.98444e-11 2.33988e-10)
(0 2.37413e-11 2.5897e-10)
(0 -2.38085e-11 2.60039e-10)
(0 -5.42042e-11 2.38684e-10)
(0 -9.42355e-11 1.98048e-10)
(0 1.14832e-10 2.0015e-10)
(0 7.02916e-11 2.35589e-10)
(0 2.39035e-11 2.60665e-10)
(0 -2.36785e-11 2.61754e-10)
(0 -5.44388e-11 2.40306e-10)
(0 -9.47781e-11 1.99467e-10)
(0 1.14802e-10 2.02234e-10)
(0 7.06412e-11 2.38048e-10)
(0 2.40739e-11 2.63179e-10)
(0 -2.35478e-11 2.64295e-10)
(0 -5.47233e-11 2.42744e-10)
(0 -9.53724e-11 2.01664e-10)
(0 1.14881e-10 2.0515e-10)
(0 7.09308e-11 2.41398e-10)
(0 2.42465e-11 2.66555e-10)
(0 -2.34235e-11 2.677e-10)
(0 -5.50345e-11 2.46045e-10)
(0 -9.59852e-11 2.04719e-10)
(0 1.15014e-10 2.09016e-10)
(0 7.11558e-11 2.45691e-10)
(0 2.44169e-11 2.70847e-10)
(0 -2.33127e-11 2.7202e-10)
(0 -5.53566e-11 2.5027e-10)
(0 -9.65477e-11 2.08742e-10)
(0 1.81314e-10 3.0129e-10)
(0 1.19612e-10 3.61207e-10)
(0 4.89309e-11 4.02221e-10)
(0 -3.61941e-11 4.04914e-10)
(0 -9.05981e-11 3.71529e-10)
(0 -1.55985e-10 3.09363e-10)
(0 1.81183e-10 3.01924e-10)
(0 1.19592e-10 3.61788e-10)
(0 4.8826e-11 4.02774e-10)
(0 -3.60234e-11 4.05495e-10)
(0 -9.06377e-11 3.72076e-10)
(0 -1.55951e-10 3.09883e-10)
(0 1.80829e-10 3.03328e-10)
(0 1.19726e-10 3.62955e-10)
(0 4.8628e-11 4.03965e-10)
(0 -3.57274e-11 4.06758e-10)
(0 -9.07274e-11 3.73272e-10)
(0 -1.55936e-10 3.11015e-10)
(0 1.8063e-10 3.05408e-10)
(0 1.19715e-10 3.6498e-10)
(0 4.84479e-11 4.05946e-10)
(0 -3.54163e-11 4.08791e-10)
(0 -9.08068e-11 3.75237e-10)
(0 -1.55937e-10 3.12891e-10)
(0 1.80503e-10 3.08287e-10)
(0 1.1961e-10 3.67897e-10)
(0 4.82721e-11 4.08782e-10)
(0 -3.50991e-11 4.11662e-10)
(0 -9.0869e-11 3.78046e-10)
(0 -1.5592e-10 3.15614e-10)
(0 1.80393e-10 3.12079e-10)
(0 1.19411e-10 3.71761e-10)
(0 4.81014e-11 4.12527e-10)
(0 -3.47874e-11 4.15423e-10)
(0 -9.08958e-11 3.81761e-10)
(0 -1.55818e-10 3.19296e-10)
(0 2.20287e-10 3.73763e-10)
(0 1.43685e-10 4.39028e-10)
(0 6.11747e-11 4.86975e-10)
(0 -3.78455e-11 4.91178e-10)
(0 -1.03325e-10 4.51803e-10)
(0 -1.78498e-10 3.80597e-10)
(0 2.20245e-10 3.74482e-10)
(0 1.43865e-10 4.39878e-10)
(0 6.11854e-11 4.87828e-10)
(0 -3.77249e-11 4.92045e-10)
(0 -1.035e-10 4.52612e-10)
(0 -1.78711e-10 3.81314e-10)
(0 2.20068e-10 3.76032e-10)
(0 1.44309e-10 4.41488e-10)
(0 6.11933e-11 4.89505e-10)
(0 -3.74974e-11 4.9377e-10)
(0 -1.03791e-10 4.5423e-10)
(0 -1.79043e-10 3.8276e-10)
(0 2.20042e-10 3.78278e-10)
(0 1.4465e-10 4.43997e-10)
(0 6.12093e-11 4.92025e-10)
(0 -3.7268e-11 4.96317e-10)
(0 -1.04119e-10 4.56665e-10)
(0 -1.7946e-10 3.84981e-10)
(0 2.20096e-10 3.81333e-10)
(0 1.44925e-10 4.47412e-10)
(0 6.12316e-11 4.95417e-10)
(0 -3.70453e-11 4.9972e-10)
(0 -1.04465e-10 4.59958e-10)
(0 -1.79908e-10 3.88064e-10)
(0 2.2018e-10 3.85313e-10)
(0 1.45128e-10 4.51788e-10)
(0 6.12613e-11 4.99739e-10)
(0 -3.68415e-11 5.04035e-10)
(0 -1.0481e-10 4.64177e-10)
(0 -1.80318e-10 3.92124e-10)
(0 2.57659e-10 4.36572e-10)
(0 1.74705e-10 5.16658e-10)
(0 8.14755e-11 5.72249e-10)
(0 -4.14588e-11 5.76985e-10)
(0 -1.20203e-10 5.32189e-10)
(0 -2.08063e-10 4.50168e-10)
(0 2.57591e-10 4.37309e-10)
(0 1.748e-10 5.17317e-10)
(0 8.13481e-11 5.72892e-10)
(0 -4.12463e-11 5.77644e-10)
(0 -1.20328e-10 5.32781e-10)
(0 -2.08069e-10 4.50704e-10)
(0 2.57356e-10 4.38871e-10)
(0 1.75084e-10 5.18644e-10)
(0 8.10863e-11 5.74256e-10)
(0 -4.08569e-11 5.79039e-10)
(0 -1.20536e-10 5.34059e-10)
(0 -2.08136e-10 4.51875e-10)
(0 2.5728e-10 4.41141e-10)
(0 1.75268e-10 5.20818e-10)
(0 8.08582e-11 5.76405e-10)
(0 -4.04681e-11 5.81216e-10)
(0 -1.20766e-10 5.36109e-10)
(0 -2.08208e-10 4.5378e-10)
(0 2.57274e-10 4.4422e-10)
(0 1.75379e-10 5.23883e-10)
(0 8.06403e-11 5.79407e-10)
(0 -4.00885e-11 5.84234e-10)
(0 -1.20996e-10 5.39004e-10)
(0 -2.0827e-10 4.56538e-10)
(0 2.5729e-10 4.48218e-10)
(0 1.7541e-10 5.27899e-10)
(0 8.04389e-11 5.83324e-10)
(0 -3.97348e-11 5.88156e-10)
(0 -1.21208e-10 5.42818e-10)
(0 -2.08268e-10 4.60275e-10)
(0 2.86328e-10 4.85487e-10)
(0 1.97449e-10 5.67053e-10)
(0 9.56152e-11 6.24392e-10)
(0 -3.83429e-11 6.28971e-10)
(0 -1.26574e-10 5.80302e-10)
(0 -2.17919e-10 4.9454e-10)
(0 2.86299e-10 4.86259e-10)
(0 1.97545e-10 5.67893e-10)
(0 9.54904e-11 6.2524e-10)
(0 -3.81634e-11 6.29803e-10)
(0 -1.26726e-10 5.81069e-10)
(0 -2.18068e-10 4.95218e-10)
(0 2.86183e-10 4.87886e-10)
(0 1.97973e-10 5.69474e-10)
(0 9.53836e-11 6.26888e-10)
(0 -3.77955e-11 6.3146e-10)
(0 -1.26977e-10 5.82617e-10)
(0 -2.18309e-10 4.96604e-10)
(0 2.8618e-10 4.90225e-10)
(0 1.98178e-10 5.71966e-10)
(0 9.51659e-11 6.29399e-10)
(0 -3.74566e-11 6.33946e-10)
(0 -1.2726e-10 5.84976e-10)
(0 -2.18618e-10 4.98757e-10)
(0 2.86213e-10 4.93381e-10)
(0 1.98262e-10 5.75371e-10)
(0 9.49026e-11 6.32796e-10)
(0 -3.71513e-11 6.37297e-10)
(0 -1.27562e-10 5.88199e-10)
(0 -2.18954e-10 5.01771e-10)
(0 2.8624e-10 4.97467e-10)
(0 1.98224e-10 5.79749e-10)
(0 9.46037e-11 6.37138e-10)
(0 -3.68964e-11 6.41576e-10)
(0 -1.27864e-10 5.92356e-10)
(0 -2.19256e-10 5.05769e-10)
(0 3.13537e-10 5.30927e-10)
(0 2.07796e-10 6.2589e-10)
(0 9.88362e-11 6.85379e-10)
(0 -3.85249e-11 6.84067e-10)
(0 -1.34455e-10 6.30375e-10)
(0 -2.32455e-10 5.36994e-10)
(0 3.13394e-10 5.31698e-10)
(0 2.07945e-10 6.2656e-10)
(0 9.86855e-11 6.86071e-10)
(0 -3.83165e-11 6.84782e-10)
(0 -1.34588e-10 6.30999e-10)
(0 -2.32525e-10 5.37568e-10)
(0 3.13145e-10 5.33253e-10)
(0 2.08088e-10 6.27974e-10)
(0 9.81508e-11 6.87562e-10)
(0 -3.78497e-11 6.86255e-10)
(0 -1.3479e-10 6.32327e-10)
(0 -2.32652e-10 5.38797e-10)
(0 3.12947e-10 5.35576e-10)
(0 2.0834e-10 6.30166e-10)
(0 9.78527e-11 6.89799e-10)
(0 -3.7461e-11 6.8853e-10)
(0 -1.35036e-10 6.34434e-10)
(0 -2.32828e-10 5.40771e-10)
(0 3.12772e-10 5.38734e-10)
(0 2.08639e-10 6.33203e-10)
(0 9.76839e-11 6.92856e-10)
(0 -3.71274e-11 6.91658e-10)
(0 -1.35305e-10 6.37391e-10)
(0 -2.33023e-10 5.43603e-10)
(0 3.12589e-10 5.42835e-10)
(0 2.08964e-10 6.37156e-10)
(0 9.76438e-11 6.96801e-10)
(0 -3.68596e-11 6.95702e-10)
(0 -1.35578e-10 6.41275e-10)
(0 -2.33183e-10 5.47418e-10)
(0 3.36708e-10 5.68041e-10)
(0 2.25284e-10 6.65759e-10)
(0 1.06937e-10 7.24916e-10)
(0 -3.5691e-11 7.19583e-10)
(0 -1.40383e-10 6.59576e-10)
(0 -2.43134e-10 5.62013e-10)
(0 3.36516e-10 5.68791e-10)
(0 2.25367e-10 6.66451e-10)
(0 1.06777e-10 7.25642e-10)
(0 -3.55425e-11 7.20389e-10)
(0 -1.40532e-10 6.60324e-10)
(0 -2.43255e-10 5.62708e-10)
(0 3.36281e-10 5.70363e-10)
(0 2.25621e-10 6.67965e-10)
(0 1.06415e-10 7.27237e-10)
(0 -3.51388e-11 7.22003e-10)
(0 -1.40772e-10 6.61838e-10)
(0 -2.43501e-10 5.6411e-10)
(0 3.35995e-10 5.72652e-10)
(0 2.25783e-10 6.702e-10)
(0 1.06114e-10 7.2954e-10)
(0 -3.48468e-11 7.2444e-10)
(0 -1.41048e-10 6.64165e-10)
(0 -2.43765e-10 5.66295e-10)
(0 3.35671e-10 5.75751e-10)
(0 2.25897e-10 6.7325e-10)
(0 1.05865e-10 7.3265e-10)
(0 -3.46356e-11 7.27736e-10)
(0 -1.41343e-10 6.67359e-10)
(0 -2.44029e-10 5.69352e-10)
(0 3.35287e-10 5.7977e-10)
(0 2.25953e-10 6.77191e-10)
(0 1.05671e-10 7.36637e-10)
(0 -3.4514e-11 7.31954e-10)
(0 -1.41643e-10 6.71495e-10)
(0 -2.44237e-10 5.73402e-10)
(0 3.46554e-10 5.92004e-10)
(0 2.27913e-10 6.91407e-10)
(0 1.04364e-10 7.51123e-10)
(0 -4.03895e-11 7.55039e-10)
(0 -1.48772e-10 6.91553e-10)
(0 -2.55654e-10 5.88421e-10)
(0 3.46335e-10 5.92754e-10)
(0 2.28077e-10 6.92078e-10)
(0 1.04241e-10 7.51866e-10)
(0 -4.01659e-11 7.55734e-10)
(0 -1.48891e-10 6.92199e-10)
(0 -2.55701e-10 5.89015e-10)
(0 3.45899e-10 5.94248e-10)
(0 2.2831e-10 6.93365e-10)
(0 1.03761e-10 7.53267e-10)
(0 -3.9604e-11 7.57219e-10)
(0 -1.49069e-10 6.93566e-10)
(0 -2.55766e-10 5.90281e-10)
(0 3.45552e-10 5.96532e-10)
(0 2.28595e-10 6.95549e-10)
(0 1.03516e-10 7.5558e-10)
(0 -3.91803e-11 7.59462e-10)
(0 -1.49285e-10 6.9571e-10)
(0 -2.55894e-10 5.9229e-10)
(0 3.45261e-10 5.99686e-10)
(0 2.28911e-10 6.98657e-10)
(0 1.0341e-10 7.58813e-10)
(0 -3.88474e-11 7.62535e-10)
(0 -1.49523e-10 6.98705e-10)
(0 -2.56042e-10 5.95158e-10)
(0 3.44999e-10 6.0382e-10)
(0 2.29238e-10 7.02761e-10)
(0 1.03439e-10 7.63025e-10)
(0 -3.86117e-11 7.66514e-10)
(0 -1.49765e-10 7.02625e-10)
(0 -2.56151e-10 5.99011e-10)
(0 3.58659e-10 6.1638e-10)
(0 2.3709e-10 7.16559e-10)
(0 1.0612e-10 7.76214e-10)
(0 -3.94177e-11 7.77461e-10)
(0 -1.53511e-10 7.08962e-10)
(0 -2.61746e-10 6.01876e-10)
(0 3.58396e-10 6.17123e-10)
(0 2.37206e-10 7.17247e-10)
(0 1.06045e-10 7.76957e-10)
(0 -3.92686e-11 7.7821e-10)
(0 -1.53627e-10 7.09688e-10)
(0 -2.61839e-10 6.02544e-10)
(0 3.57942e-10 6.18649e-10)
(0 2.3746e-10 7.18645e-10)
(0 1.05707e-10 7.78438e-10)
(0 -3.88235e-11 7.79778e-10)
(0 -1.53822e-10 7.1117e-10)
(0 -2.61998e-10 6.03914e-10)
(0 3.57517e-10 6.20923e-10)
(0 2.37677e-10 7.20861e-10)
(0 1.05546e-10 7.8076e-10)
(0 -3.85227e-11 7.82115e-10)
(0 -1.54038e-10 7.13458e-10)
(0 -2.62208e-10 6.06052e-10)
(0 3.57112e-10 6.24039e-10)
(0 2.37878e-10 7.23958e-10)
(0 1.05498e-10 7.83966e-10)
(0 -3.83194e-11 7.85285e-10)
(0 -1.54271e-10 7.16608e-10)
(0 -2.62431e-10 6.09061e-10)
(0 3.56708e-10 6.28111e-10)
(0 2.38051e-10 7.28012e-10)
(0 1.05556e-10 7.88124e-10)
(0 -3.82177e-11 7.89362e-10)
(0 -1.54505e-10 7.20697e-10)
(0 -2.62605e-10 6.13071e-10)
(0 3.64451e-10 6.37204e-10)
(0 2.41549e-10 7.38935e-10)
(0 1.10928e-10 7.97492e-10)
(0 -4.27208e-11 7.9923e-10)
(0 -1.5677e-10 7.28352e-10)
(0 -2.66427e-10 6.16984e-10)
(0 3.64183e-10 6.37945e-10)
(0 2.41692e-10 7.39566e-10)
(0 1.10769e-10 7.98207e-10)
(0 -4.24797e-11 7.99924e-10)
(0 -1.56892e-10 7.29005e-10)
(0 -2.66492e-10 6.17589e-10)
(0 3.63727e-10 6.3948e-10)
(0 2.41966e-10 7.40862e-10)
(0 1.10278e-10 7.99627e-10)
(0 -4.18647e-11 8.0143e-10)
(0 -1.57069e-10 7.30388e-10)
(0 -2.66605e-10 6.18868e-10)
(0 3.63298e-10 6.41749e-10)
(0 2.42221e-10 7.42979e-10)
(0 1.09976e-10 8.01898e-10)
(0 -4.14068e-11 8.0367e-10)
(0 -1.5729e-10 7.32547e-10)
(0 -2.66767e-10 6.20897e-10)
(0 3.62892e-10 6.44846e-10)
(0 2.42465e-10 7.45981e-10)
(0 1.09792e-10 8.05057e-10)
(0 -4.1054e-11 8.06725e-10)
(0 -1.57536e-10 7.35553e-10)
(0 -2.6694e-10 6.23792e-10)
(0 3.62489e-10 6.48888e-10)
(0 2.42685e-10 7.49943e-10)
(0 1.09724e-10 8.09171e-10)
(0 -4.08139e-11 8.10674e-10)
(0 -1.57791e-10 7.39487e-10)
(0 -2.6707e-10 6.27685e-10)
(0 3.6495e-10 6.52448e-10)
(0 2.44942e-10 7.51783e-10)
(0 1.11478e-10 8.09611e-10)
(0 -4.14475e-11 8.10718e-10)
(0 -1.5964e-10 7.37515e-10)
(0 -2.68065e-10 6.24743e-10)
(0 3.64733e-10 6.53194e-10)
(0 2.45055e-10 7.52491e-10)
(0 1.11401e-10 8.10381e-10)
(0 -4.12795e-11 8.11454e-10)
(0 -1.59739e-10 7.38227e-10)
(0 -2.68143e-10 6.2539e-10)
(0 3.64332e-10 6.54754e-10)
(0 2.45272e-10 7.53904e-10)
(0 1.11035e-10 8.11878e-10)
(0 -4.07899e-11 8.13006e-10)
(0 -1.599e-10 7.39685e-10)
(0 -2.68276e-10 6.26723e-10)
(0 3.63991e-10 6.57035e-10)
(0 2.45476e-10 7.56156e-10)
(0 1.10862e-10 8.14247e-10)
(0 -4.04521e-11 8.15319e-10)
(0 -1.60083e-10 7.41945e-10)
(0 -2.68459e-10 6.28824e-10)
(0 3.63687e-10 6.60141e-10)
(0 2.45681e-10 7.59294e-10)
(0 1.10809e-10 8.17514e-10)
(0 -4.02172e-11 8.18463e-10)
(0 -1.60286e-10 7.45065e-10)
(0 -2.68662e-10 6.31797e-10)
(0 3.634e-10 6.64188e-10)
(0 2.45873e-10 7.63395e-10)
(0 1.10871e-10 8.21744e-10)
(0 -4.00905e-11 8.22515e-10)
(0 -1.60495e-10 7.49124e-10)
(0 -2.68833e-10 6.35774e-10)
(0 3.69181e-10 6.63091e-10)
(0 2.49002e-10 7.66914e-10)
(0 1.19574e-10 8.22897e-10)
(0 -4.43478e-11 8.22828e-10)
(0 -1.62008e-10 7.48188e-10)
(0 -2.72889e-10 6.31814e-10)
(0 3.68943e-10 6.63865e-10)
(0 2.49088e-10 7.67556e-10)
(0 1.19307e-10 8.23651e-10)
(0 -4.40911e-11 8.23536e-10)
(0 -1.62125e-10 7.48845e-10)
(0 -2.72937e-10 6.32437e-10)
(0 3.68626e-10 6.65401e-10)
(0 2.49249e-10 7.68913e-10)
(0 1.18657e-10 8.25156e-10)
(0 -4.34475e-11 8.25067e-10)
(0 -1.62288e-10 7.50246e-10)
(0 -2.73015e-10 6.33737e-10)
(0 3.68266e-10 6.6772e-10)
(0 2.49398e-10 7.71054e-10)
(0 1.18164e-10 8.275e-10)
(0 -4.29622e-11 8.27333e-10)
(0 -1.62498e-10 7.52412e-10)
(0 -2.73144e-10 6.35799e-10)
(0 3.67889e-10 6.70888e-10)
(0 2.49545e-10 7.74056e-10)
(0 1.17778e-10 8.30721e-10)
(0 -4.25841e-11 8.30414e-10)
(0 -1.62736e-10 7.55425e-10)
(0 -2.73292e-10 6.38733e-10)
(0 3.67481e-10 6.75016e-10)
(0 2.49677e-10 7.78e-10)
(0 1.17504e-10 8.34885e-10)
(0 -4.23237e-11 8.34389e-10)
(0 -1.62988e-10 7.59363e-10)
(0 -2.73407e-10 6.4267e-10)
(0 3.67016e-10 6.72488e-10)
(0 2.45403e-10 7.75272e-10)
(0 1.13351e-10 8.30985e-10)
(0 -4.49069e-11 8.28796e-10)
(0 -1.65586e-10 7.51297e-10)
(0 -2.7776e-10 6.33715e-10)
(0 3.66835e-10 6.73261e-10)
(0 2.4555e-10 7.75954e-10)
(0 1.1326e-10 8.31746e-10)
(0 -4.47387e-11 8.29533e-10)
(0 -1.65694e-10 7.52013e-10)
(0 -2.77821e-10 6.34393e-10)
(0 3.66546e-10 6.74814e-10)
(0 2.45683e-10 7.77375e-10)
(0 1.12765e-10 8.33258e-10)
(0 -4.42623e-11 8.31079e-10)
(0 -1.6587e-10 7.53479e-10)
(0 -2.77959e-10 6.35754e-10)
(0 3.66279e-10 6.77136e-10)
(0 2.45934e-10 7.79582e-10)
(0 1.12554e-10 8.35613e-10)
(0 -4.39235e-11 8.33393e-10)
(0 -1.66069e-10 7.55747e-10)
(0 -2.78111e-10 6.37909e-10)
(0 3.66039e-10 6.80296e-10)
(0 2.46251e-10 7.8265e-10)
(0 1.12506e-10 8.38852e-10)
(0 -4.36747e-11 8.36539e-10)
(0 -1.66282e-10 7.5888e-10)
(0 -2.78259e-10 6.40955e-10)
(0 3.65806e-10 6.84408e-10)
(0 2.46616e-10 7.86658e-10)
(0 1.12619e-10 8.43039e-10)
(0 -4.35224e-11 8.40594e-10)
(0 -1.66496e-10 7.62956e-10)
(0 -2.78347e-10 6.45021e-10)
(0 3.75317e-10 6.79247e-10)
(0 2.54218e-10 7.83056e-10)
(0 1.23825e-10 8.37214e-10)
(0 -4.96421e-11 8.36686e-10)
(0 -1.67335e-10 7.58798e-10)
(0 -2.79288e-10 6.40905e-10)
(0 3.75077e-10 6.8001e-10)
(0 2.54342e-10 7.8368e-10)
(0 1.23576e-10 8.37964e-10)
(0 -4.93427e-11 8.37388e-10)
(0 -1.67459e-10 7.59464e-10)
(0 -2.79329e-10 6.4153e-10)
(0 3.74731e-10 6.81547e-10)
(0 2.54689e-10 7.84988e-10)
(0 1.23109e-10 8.39421e-10)
(0 -4.86769e-11 8.38929e-10)
(0 -1.67647e-10 7.60884e-10)
(0 -2.79374e-10 6.42849e-10)
(0 3.74361e-10 6.83849e-10)
(0 2.54919e-10 7.87094e-10)
(0 1.22663e-10 8.41752e-10)
(0 -4.81172e-11 8.41183e-10)
(0 -1.67868e-10 7.63067e-10)
(0 -2.79488e-10 6.44915e-10)
(0 3.73971e-10 6.86987e-10)
(0 2.55084e-10 7.90072e-10)
(0 1.22248e-10 8.44982e-10)
(0 -4.76365e-11 8.44241e-10)
(0 -1.68107e-10 7.66091e-10)
(0 -2.79625e-10 6.47846e-10)
(0 3.73543e-10 6.91073e-10)
(0 2.55172e-10 7.94002e-10)
(0 1.21876e-10 8.49174e-10)
(0 -4.72523e-11 8.48184e-10)
(0 -1.68349e-10 7.70037e-10)
(0 -2.79732e-10 6.51769e-10)
(0 3.74758e-10 6.81197e-10)
(0 2.5229e-10 7.84441e-10)
(0 1.18642e-10 8.39488e-10)
(0 -4.83963e-11 8.38062e-10)
(0 -1.68917e-10 7.58445e-10)
(0 -2.80818e-10 6.40423e-10)
(0 3.74539e-10 6.81972e-10)
(0 2.52427e-10 7.85106e-10)
(0 1.18532e-10 8.40235e-10)
(0 -4.8181e-11 8.38786e-10)
(0 -1.69008e-10 7.59163e-10)
(0 -2.80853e-10 6.41089e-10)
(0 3.74186e-10 6.83531e-10)
(0 2.52696e-10 7.86482e-10)
(0 1.18172e-10 8.41691e-10)
(0 -4.76672e-11 8.40324e-10)
(0 -1.69171e-10 7.6063e-10)
(0 -2.8092e-10 6.42447e-10)
(0 3.73848e-10 6.85855e-10)
(0 2.52949e-10 7.88655e-10)
(0 1.17951e-10 8.44017e-10)
(0 -4.72485e-11 8.42614e-10)
(0 -1.69342e-10 7.62903e-10)
(0 -2.81023e-10 6.44584e-10)
(0 3.73518e-10 6.89014e-10)
(0 2.53191e-10 7.91698e-10)
(0 1.17815e-10 8.47244e-10)
(0 -4.6897e-11 8.45729e-10)
(0 -1.69516e-10 7.66037e-10)
(0 -2.81132e-10 6.47603e-10)
(0 3.73177e-10 6.93122e-10)
(0 2.53409e-10 7.95692e-10)
(0 1.17767e-10 8.51435e-10)
(0 -4.66255e-11 8.49746e-10)
(0 -1.69682e-10 7.70111e-10)
(0 -2.81194e-10 6.51633e-10)
(0 3.74417e-10 6.80868e-10)
(0 2.50805e-10 7.84958e-10)
(0 1.21708e-10 8.38939e-10)
(0 -4.73131e-11 8.40469e-10)
(0 -1.64709e-10 7.61101e-10)
(0 -2.7888e-10 6.40793e-10)
(0 3.74197e-10 6.81634e-10)
(0 2.51003e-10 7.85571e-10)
(0 1.21521e-10 8.39685e-10)
(0 -4.70515e-11 8.41163e-10)
(0 -1.64868e-10 7.61767e-10)
(0 -2.78906e-10 6.41436e-10)
(0 3.73848e-10 6.83183e-10)
(0 2.51366e-10 7.86866e-10)
(0 1.2106e-10 8.4113e-10)
(0 -4.64696e-11 8.42715e-10)
(0 -1.65117e-10 7.63204e-10)
(0 -2.7894e-10 6.42768e-10)
(0 3.73513e-10 6.85491e-10)
(0 2.51719e-10 7.88954e-10)
(0 1.20713e-10 8.43455e-10)
(0 -4.59798e-11 8.44957e-10)
(0 -1.65399e-10 7.6539e-10)
(0 -2.79027e-10 6.44869e-10)
(0 3.73189e-10 6.88636e-10)
(0 2.52061e-10 7.91914e-10)
(0 1.20441e-10 8.46686e-10)
(0 -4.55591e-11 8.47988e-10)
(0 -1.65698e-10 7.68409e-10)
(0 -2.79128e-10 6.4785e-10)
(0 3.72857e-10 6.92729e-10)
(0 2.52376e-10 7.95829e-10)
(0 1.20253e-10 8.50885e-10)
(0 -4.52223e-11 8.51892e-10)
(0 -1.65996e-10 7.72343e-10)
(0 -2.7919e-10 6.5184e-10)
(0 3.74746e-10 6.76046e-10)
(0 2.54841e-10 7.78001e-10)
(0 1.23089e-10 8.33231e-10)
(0 -4.24872e-11 8.35975e-10)
(0 -1.63182e-10 7.56383e-10)
(0 -2.74877e-10 6.37046e-10)
(0 3.74537e-10 6.76834e-10)
(0 2.5496e-10 7.78703e-10)
(0 1.22964e-10 8.34023e-10)
(0 -4.22827e-11 8.36691e-10)
(0 -1.63267e-10 7.57095e-10)
(0 -2.74884e-10 6.37749e-10)
(0 3.74208e-10 6.78388e-10)
(0 2.55235e-10 7.80085e-10)
(0 1.22617e-10 8.35486e-10)
(0 -4.17809e-11 8.38232e-10)
(0 -1.63418e-10 7.58561e-10)
(0 -2.74887e-10 6.39104e-10)
(0 3.73893e-10 6.80736e-10)
(0 2.55458e-10 7.82323e-10)
(0 1.22368e-10 8.3789e-10)
(0 -4.13837e-11 8.40511e-10)
(0 -1.63577e-10 7.60826e-10)
(0 -2.74939e-10 6.41306e-10)
(0 3.73584e-10 6.83943e-10)
(0 2.55655e-10 7.85463e-10)
(0 1.22187e-10 8.41228e-10)
(0 -4.10606e-11 8.4361e-10)
(0 -1.63744e-10 7.63956e-10)
(0 -2.75006e-10 6.44421e-10)
(0 3.73262e-10 6.88121e-10)
(0 2.55815e-10 7.89582e-10)
(0 1.2208e-10 8.45562e-10)
(0 -4.0823e-11 8.4761e-10)
(0 -1.63905e-10 7.6803e-10)
(0 -2.75036e-10 6.48578e-10)
(0 3.74034e-10 6.75123e-10)
(0 2.55276e-10 7.79524e-10)
(0 1.28176e-10 8.34026e-10)
(0 -3.91183e-11 8.33788e-10)
(0 -1.55524e-10 7.55721e-10)
(0 -2.67021e-10 6.42163e-10)
(0 3.73853e-10 6.75892e-10)
(0 2.55399e-10 7.80148e-10)
(0 1.27915e-10 8.34785e-10)
(0 -3.88862e-11 8.34504e-10)
(0 -1.55688e-10 7.56426e-10)
(0 -2.67054e-10 6.42806e-10)
(0 3.7357e-10 6.77455e-10)
(0 2.55583e-10 7.81515e-10)
(0 1.27278e-10 8.36319e-10)
(0 -3.83352e-11 8.36072e-10)
(0 -1.55929e-10 7.57891e-10)
(0 -2.67116e-10 6.44222e-10)
(0 3.73308e-10 6.79772e-10)
(0 2.55796e-10 7.83629e-10)
(0 1.26794e-10 8.38673e-10)
(0 -3.78998e-11 8.38355e-10)
(0 -1.56221e-10 7.60146e-10)
(0 -2.67217e-10 6.46328e-10)
(0 3.73066e-10 6.82921e-10)
(0 2.5603e-10 7.86588e-10)
(0 1.26414e-10 8.419e-10)
(0 -3.75462e-11 8.41444e-10)
(0 -1.5654e-10 7.63253e-10)
(0 -2.67336e-10 6.49271e-10)
(0 3.72823e-10 6.87015e-10)
(0 2.56269e-10 7.90478e-10)
(0 1.26147e-10 8.46065e-10)
(0 -3.72882e-11 8.45417e-10)
(0 -1.56871e-10 7.67288e-10)
(0 -2.67425e-10 6.53183e-10)
(0 3.78172e-10 6.68227e-10)
(0 2.56579e-10 7.71114e-10)
(0 1.24225e-10 8.28436e-10)
(0 -3.79938e-11 8.28213e-10)
(0 -1.55193e-10 7.50289e-10)
(0 -2.62765e-10 6.38147e-10)
(0 3.77984e-10 6.69078e-10)
(0 2.56767e-10 7.71849e-10)
(0 1.24158e-10 8.29243e-10)
(0 -3.78185e-11 8.28947e-10)
(0 -1.5529e-10 7.5103e-10)
(0 -2.62781e-10 6.38834e-10)
(0 3.77684e-10 6.7066e-10)
(0 2.56979e-10 7.73264e-10)
(0 1.23714e-10 8.30748e-10)
(0 -3.73758e-11 8.30491e-10)
(0 -1.5545e-10 7.52509e-10)
(0 -2.62812e-10 6.40236e-10)
(0 3.77407e-10 6.73116e-10)
(0 2.57303e-10 7.75564e-10)
(0 1.23546e-10 8.33179e-10)
(0 -3.70271e-11 8.32804e-10)
(0 -1.5563e-10 7.54826e-10)
(0 -2.62884e-10 6.42413e-10)
(0 3.77161e-10 6.76471e-10)
(0 2.57682e-10 7.78784e-10)
(0 1.23532e-10 8.36535e-10)
(0 -3.67408e-11 8.35955e-10)
(0 -1.55823e-10 7.58024e-10)
(0 -2.62971e-10 6.4547e-10)
(0 3.76924e-10 6.80834e-10)
(0 2.581e-10 7.83002e-10)
(0 1.2367e-10 8.40881e-10)
(0 -3.65284e-11 8.40025e-10)
(0 -1.56018e-10 7.62179e-10)
(0 -2.63025e-10 6.49536e-10)
(0 3.88269e-10 6.81661e-10)
(0 2.75855e-10 7.7864e-10)
(0 1.42224e-10 8.34509e-10)
(0 -4.20732e-11 8.26845e-10)
(0 -1.53331e-10 7.49256e-10)
(0 -2.57497e-10 6.37746e-10)
(0 3.88079e-10 6.82375e-10)
(0 2.75914e-10 7.79284e-10)
(0 1.41936e-10 8.35224e-10)
(0 -4.17368e-11 8.27592e-10)
(0 -1.53456e-10 7.49979e-10)
(0 -2.57555e-10 6.38423e-10)
(0 3.87667e-10 6.84008e-10)
(0 2.76276e-10 7.80635e-10)
(0 1.41508e-10 8.36715e-10)
(0 -4.1069e-11 8.29185e-10)
(0 -1.53637e-10 7.51463e-10)
(0 -2.57651e-10 6.39853e-10)
(0 3.87364e-10 6.8624e-10)
(0 2.76402e-10 7.82779e-10)
(0 1.41003e-10 8.38992e-10)
(0 -4.04478e-11 8.31524e-10)
(0 -1.53858e-10 7.53753e-10)
(0 -2.57798e-10 6.42016e-10)
(0 3.87108e-10 6.89212e-10)
(0 2.76391e-10 7.85786e-10)
(0 1.4047e-10 8.42122e-10)
(0 -3.98742e-11 8.34683e-10)
(0 -1.54103e-10 7.56906e-10)
(0 -2.57968e-10 6.45038e-10)
(0 3.86865e-10 6.93047e-10)
(0 2.76246e-10 7.89729e-10)
(0 1.39929e-10 8.46177e-10)
(0 -3.93769e-11 8.3874e-10)
(0 -1.54356e-10 7.60998e-10)
(0 -2.58112e-10 6.49051e-10)
(0 3.92305e-10 6.75785e-10)
(0 2.75333e-10 7.72323e-10)
(0 1.35469e-10 8.30862e-10)
(0 -4.36525e-11 8.23506e-10)
(0 -1.55542e-10 7.46184e-10)
(0 -2.57044e-10 6.3593e-10)
(0 3.92098e-10 6.76565e-10)
(0 2.7544e-10 7.73043e-10)
(0 1.35347e-10 8.31597e-10)
(0 -4.34082e-11 8.24257e-10)
(0 -1.55635e-10 7.46928e-10)
(0 -2.57104e-10 6.36604e-10)
(0 3.91645e-10 6.78226e-10)
(0 2.75751e-10 7.74434e-10)
(0 1.3502e-10 8.33059e-10)
(0 -4.29071e-11 8.25815e-10)
(0 -1.55792e-10 7.48414e-10)
(0 -2.57212e-10 6.38002e-10)
(0 3.91312e-10 6.80573e-10)
(0 2.75957e-10 7.76704e-10)
(0 1.34782e-10 8.35366e-10)
(0 -4.24351e-11 8.28158e-10)
(0 -1.55964e-10 7.50737e-10)
(0 -2.57363e-10 6.4016e-10)
(0 3.91042e-10 6.83711e-10)
(0 2.7609e-10 7.79886e-10)
(0 1.34591e-10 8.38561e-10)
(0 -4.1993e-11 8.31347e-10)
(0 -1.56146e-10 7.53942e-10)
(0 -2.57527e-10 6.43194e-10)
(0 3.90806e-10 6.87758e-10)
(0 2.76146e-10 7.8405e-10)
(0 1.34453e-10 8.42714e-10)
(0 -4.16065e-11 8.35455e-10)
(0 -1.56327e-10 7.581e-10)
(0 -2.57655e-10 6.47235e-10)
(0 3.92865e-10 6.71741e-10)
(0 2.72954e-10 7.69827e-10)
(0 1.33485e-10 8.28205e-10)
(0 -5.25544e-11 8.221e-10)
(0 -1.5774e-10 7.46066e-10)
(0 -2.56991e-10 6.35141e-10)
(0 3.92665e-10 6.72515e-10)
(0 2.73121e-10 7.7051e-10)
(0 1.33304e-10 8.28947e-10)
(0 -5.21703e-11 8.22865e-10)
(0 -1.57844e-10 7.46799e-10)
(0 -2.57058e-10 6.35832e-10)
(0 3.92195e-10 6.74158e-10)
(0 2.73602e-10 7.7184e-10)
(0 1.32966e-10 8.30417e-10)
(0 -5.14731e-11 8.24487e-10)
(0 -1.57996e-10 7.48306e-10)
(0 -2.57176e-10 6.37264e-10)
(0 3.91876e-10 6.76495e-10)
(0 2.73917e-10 7.74048e-10)
(0 1.32646e-10 8.32736e-10)
(0 -5.07659e-11 8.26858e-10)
(0 -1.5818e-10 7.50615e-10)
(0 -2.57341e-10 6.39452e-10)
(0 3.91635e-10 6.79631e-10)
(0 2.74133e-10 7.77172e-10)
(0 1.32348e-10 8.35945e-10)
(0 -5.00698e-11 8.30053e-10)
(0 -1.58379e-10 7.53786e-10)
(0 -2.57521e-10 6.42512e-10)
(0 3.9144e-10 6.83687e-10)
(0 2.74247e-10 7.81285e-10)
(0 1.32084e-10 8.40114e-10)
(0 -4.94184e-11 8.34147e-10)
(0 -1.5858e-10 7.57894e-10)
(0 -2.57662e-10 6.46575e-10)
(0 3.92619e-10 6.68964e-10)
(0 2.71656e-10 7.6702e-10)
(0 1.27718e-10 8.26948e-10)
(0 -5.30986e-11 8.21746e-10)
(0 -1.59765e-10 7.46018e-10)
(0 -2.56871e-10 6.36198e-10)
(0 3.92422e-10 6.69743e-10)
(0 2.71782e-10 7.67731e-10)
(0 1.27622e-10 8.2768e-10)
(0 -5.28226e-11 8.22496e-10)
(0 -1.59848e-10 7.46756e-10)
(0 -2.56937e-10 6.36872e-10)
(0 3.91939e-10 6.71394e-10)
(0 2.72136e-10 7.69109e-10)
(0 1.27341e-10 8.29133e-10)
(0 -5.22915e-11 8.24071e-10)
(0 -1.59985e-10 7.48247e-10)
(0 -2.57058e-10 6.38262e-10)
(0 3.91621e-10 6.73741e-10)
(0 2.72382e-10 7.71364e-10)
(0 1.27154e-10 8.31435e-10)
(0 -5.1762e-11 8.26415e-10)
(0 -1.60138e-10 7.50562e-10)
(0 -2.5722e-10 6.40421e-10)
(0 3.91391e-10 6.76887e-10)
(0 2.72556e-10 7.74533e-10)
(0 1.27018e-10 8.34629e-10)
(0 -5.12446e-11 8.29595e-10)
(0 -1.603e-10 7.53748e-10)
(0 -2.57397e-10 6.43459e-10)
(0 3.91218e-10 6.80955e-10)
(0 2.72653e-10 7.78689e-10)
(0 1.26939e-10 8.38786e-10)
(0 -5.07687e-11 8.33685e-10)
(0 -1.6046e-10 7.57881e-10)
(0 -2.57537e-10 6.47507e-10)
(0 3.93193e-10 6.68351e-10)
(0 2.70277e-10 7.67327e-10)
(0 1.288e-10 8.26339e-10)
(0 -5.92523e-11 8.2194e-10)
(0 -1.60548e-10 7.47369e-10)
(0 -2.56596e-10 6.37613e-10)
(0 3.92993e-10 6.69119e-10)
(0 2.70461e-10 7.67999e-10)
(0 1.28622e-10 8.27078e-10)
(0 -5.8854e-11 8.22718e-10)
(0 -1.6065e-10 7.48115e-10)
(0 -2.56664e-10 6.38311e-10)
(0 3.9252e-10 6.70747e-10)
(0 2.71002e-10 7.69308e-10)
(0 1.28325e-10 8.28529e-10)
(0 -5.81622e-11 8.24362e-10)
(0 -1.60805e-10 7.49641e-10)
(0 -2.56782e-10 6.3975e-10)
(0 3.92201e-10 6.73071e-10)
(0 2.71352e-10 7.71496e-10)
(0 1.28016e-10 8.30843e-10)
(0 -5.74302e-11 8.26757e-10)
(0 -1.60986e-10 7.51973e-10)
(0 -2.56948e-10 6.4195e-10)
(0 3.91961e-10 6.762e-10)
(0 2.71583e-10 7.74604e-10)
(0 1.27711e-10 8.34056e-10)
(0 -5.66928e-11 8.29973e-10)
(0 -1.61178e-10 7.55167e-10)
(0 -2.57133e-10 6.45021e-10)
(0 3.91764e-10 6.80254e-10)
(0 2.71693e-10 7.78704e-10)
(0 1.2742e-10 8.38239e-10)
(0 -5.59873e-11 8.34087e-10)
(0 -1.61369e-10 7.59299e-10)
(0 -2.57284e-10 6.49095e-10)
(0 3.91089e-10 6.68326e-10)
(0 2.68327e-10 7.66581e-10)
(0 1.23516e-10 8.27365e-10)
(0 -5.74912e-11 8.25182e-10)
(0 -1.60723e-10 7.50981e-10)
(0 -2.56684e-10 6.41129e-10)
(0 3.90889e-10 6.69099e-10)
(0 2.68444e-10 7.67295e-10)
(0 1.23413e-10 8.28105e-10)
(0 -5.7194e-11 8.25924e-10)
(0 -1.608e-10 7.51711e-10)
(0 -2.56752e-10 6.41803e-10)
(0 3.90398e-10 6.7074e-10)
(0 2.68829e-10 7.68672e-10)
(0 1.23167e-10 8.29553e-10)
(0 -5.66468e-11 8.275e-10)
(0 -1.60926e-10 7.53197e-10)
(0 -2.56879e-10 6.43194e-10)
(0 3.90076e-10 6.73076e-10)
(0 2.69067e-10 7.70933e-10)
(0 1.22976e-10 8.31868e-10)
(0 -5.60827e-11 8.29832e-10)
(0 -1.61068e-10 7.55498e-10)
(0 -2.57045e-10 6.45352e-10)
(0 3.89841e-10 6.76216e-10)
(0 2.69209e-10 7.74113e-10)
(0 1.22813e-10 8.35084e-10)
(0 -5.55195e-11 8.32993e-10)
(0 -1.61219e-10 7.58665e-10)
(0 -2.57223e-10 6.4839e-10)
(0 3.8966e-10 6.8028e-10)
(0 2.69252e-10 7.78284e-10)
(0 1.22684e-10 8.3927e-10)
(0 -5.49892e-11 8.37059e-10)
(0 -1.61364e-10 7.62775e-10)
(0 -2.57357e-10 6.52438e-10)
(0 3.86683e-10 6.69821e-10)
(0 2.60027e-10 7.69877e-10)
(0 1.20045e-10 8.30039e-10)
(0 -5.9286e-11 8.27639e-10)
(0 -1.56556e-10 7.55207e-10)
(0 -2.53832e-10 6.45078e-10)
(0 3.86493e-10 6.70596e-10)
(0 2.60267e-10 7.70543e-10)
(0 1.19921e-10 8.30772e-10)
(0 -5.8926e-11 8.28424e-10)
(0 -1.56699e-10 7.55952e-10)
(0 -2.53916e-10 6.45786e-10)
(0 3.86006e-10 6.72225e-10)
(0 2.60886e-10 7.71864e-10)
(0 1.19704e-10 8.32224e-10)
(0 -5.83183e-11 8.30074e-10)
(0 -1.56919e-10 7.57473e-10)
(0 -2.54061e-10 6.47233e-10)
(0 3.85708e-10 6.74561e-10)
(0 2.61339e-10 7.74047e-10)
(0 1.19494e-10 8.34531e-10)
(0 -5.76574e-11 8.32481e-10)
(0 -1.57174e-10 7.59802e-10)
(0 -2.54256e-10 6.49449e-10)
(0 3.85512e-10 6.77706e-10)
(0 2.61689e-10 7.77143e-10)
(0 1.19296e-10 8.37737e-10)
(0 -5.69816e-11 8.35714e-10)
(0 -1.57442e-10 7.62995e-10)
(0 -2.54466e-10 6.52543e-10)
(0 3.85382e-10 6.81778e-10)
(0 2.61931e-10 7.81225e-10)
(0 1.19119e-10 8.41911e-10)
(0 -5.63263e-11 8.39849e-10)
(0 -1.57707e-10 7.67131e-10)
(0 -2.54634e-10 6.56648e-10)
(0 3.83993e-10 6.71853e-10)
(0 2.57404e-10 7.70464e-10)
(0 1.14945e-10 8.32759e-10)
(0 -5.52678e-11 8.34892e-10)
(0 -1.539e-10 7.64211e-10)
(0 -2.4996e-10 6.54541e-10)
(0 3.83813e-10 6.72639e-10)
(0 2.57582e-10 7.71229e-10)
(0 1.1491e-10 8.33553e-10)
(0 -5.49756e-11 8.35632e-10)
(0 -1.53982e-10 7.64923e-10)
(0 -2.50018e-10 6.55199e-10)
(0 3.83318e-10 6.74281e-10)
(0 2.58053e-10 7.72642e-10)
(0 1.14765e-10 8.35027e-10)
(0 -5.44633e-11 8.37194e-10)
(0 -1.54118e-10 7.66388e-10)
(0 -2.5012e-10 6.5657e-10)
(0 3.83036e-10 6.76643e-10)
(0 2.58411e-10 7.74993e-10)
(0 1.14704e-10 8.37434e-10)
(0 -5.39128e-11 8.39522e-10)
(0 -1.54274e-10 7.68657e-10)
(0 -2.50273e-10 6.587e-10)
(0 3.82873e-10 6.79831e-10)
(0 2.58694e-10 7.78288e-10)
(0 1.14688e-10 8.40773e-10)
(0 -5.33484e-11 8.42687e-10)
(0 -1.54439e-10 7.71788e-10)
(0 -2.50443e-10 6.61705e-10)
(0 3.82792e-10 6.8396e-10)
(0 2.58896e-10 7.82594e-10)
(0 1.14717e-10 8.45109e-10)
(0 -5.27996e-11 8.46766e-10)
(0 -1.54595e-10 7.75859e-10)
(0 -2.50574e-10 6.65717e-10)
(0 3.85778e-10 6.78516e-10)
(0 2.55083e-10 7.86135e-10)
(0 1.18424e-10 8.48117e-10)
(0 -4.90077e-11 8.42308e-10)
(0 -1.43482e-10 7.7318e-10)
(0 -2.41292e-10 6.63116e-10)
(0 3.85631e-10 6.79348e-10)
(0 2.55464e-10 7.86812e-10)
(0 1.1844e-10 8.48862e-10)
(0 -4.86887e-11 8.43113e-10)
(0 -1.43668e-10 7.73902e-10)
(0 -2.41418e-10 6.638e-10)
(0 3.85212e-10 6.81008e-10)
(0 2.56334e-10 7.88275e-10)
(0 1.18481e-10 8.50446e-10)
(0 -4.81584e-11 8.4475e-10)
(0 -1.43954e-10 7.75381e-10)
(0 -2.41635e-10 6.65196e-10)
(0 3.85006e-10 6.83443e-10)
(0 2.57049e-10 7.90486e-10)
(0 1.18527e-10 8.52782e-10)
(0 -4.75706e-11 8.47189e-10)
(0 -1.4429e-10 7.77665e-10)
(0 -2.41909e-10 6.67365e-10)
(0 3.84917e-10 6.86715e-10)
(0 2.57653e-10 7.93537e-10)
(0 1.18567e-10 8.55949e-10)
(0 -4.6967e-11 8.50477e-10)