/*--------------------------------*- C++ -*----------------------------------*\
  =========                 |
  \\      /  F ield         | OpenFOAM: The Open Source CFD Toolbox
   \\    /   O peration     | Website:  https://openfoam.org
    \\  /    A nd           | Version:  13
     \\/     M anipulation  |
\*---------------------------------------------------------------------------*/
FoamFile
{
    format      ascii;
    class       volScalarField;
    location    "0.001";
    object      sigmaEq;
}
// * * * * * * * * * * * * * * * * * * * * * * * * * * * * * * * * * * * * * //

dimensions      [1 -1 -2 0 0 0 0];

internalField   nonuniform List<scalar> 
17280
(
11.3193
12.038
12.8388
12.8769
12.0992
10.9263
11.3482
12.1012
12.9176
12.9506
12.1551
10.9732
11.4409
12.2276
13.0662
13.0933
12.2762
11.0817
11.6596
12.4784
13.3453
13.3672
12.5221
11.3045
11.9864
12.8463
13.7377
13.7549
12.8832
11.6477
12.4158
13.3094
14.2244
14.2382
13.3477
12.1219
10.6742
11.075
11.4995
11.3863
10.9507
10.7717
10.6926
11.2055
11.6274
11.4915
11.0362
10.9033
10.7922
11.3556
11.8007
11.6474
11.1657
11.0623
10.9796
11.5148
11.9994
11.8328
11.3209
11.2417
11.2181
11.7189
12.2385
12.0581
11.5122
11.4757
11.5138
11.9196
12.4793
12.2907
11.6934
11.7002
9.7641
9.69414
9.71401
9.43317
9.4963
10.1119
9.78832
9.84614
9.88337
9.59135
9.628
10.231
9.92993
10.0164
10.1143
9.80642
9.7943
10.408
10.2016
10.2139
10.4118
10.0822
10.0002
10.6468
10.5345
10.4769
10.7651
10.4162
10.2557
10.9557
10.9914
10.8605
11.2376
10.8733
10.6026
11.4124
9.21471
8.99258
8.57455
8.10343
8.5563
9.80594
9.31464
9.30326
8.90437
8.40869
8.81266
10.0535
9.54268
9.60891
9.28707
8.77014
9.10043
10.3446
9.90822
9.91874
9.72057
9.185
9.42463
10.6963
10.345
10.2938
10.2117
9.66205
9.80093
11.1166
10.8632
10.6535
10.7
10.1552
10.1461
11.5471
9.46272
9.12296
8.60516
8.05101
8.64453
10.0947
9.56461
9.41731
8.92823
8.36836
8.91711
10.3114
9.81255
9.71686
9.32623
8.75754
9.222
10.5863
10.21
10.0278
9.79586
9.21934
9.56547
10.921
10.6737
10.407
10.3277
9.74837
9.9612
11.3386
11.2366
10.858
10.9626
10.3898
10.4021
11.8865
9.41523
9.09532
8.62174
8.01351
8.55124
10.1289
9.56448
9.48027
9.05462
8.42976
8.8922
10.4147
9.84719
9.84307
9.54278
8.91179
9.26601
10.7536
10.2603
10.1811
10.0783
9.45719
9.67864
11.1609
10.747
10.6049
10.6758
10.0642
10.1456
11.6435
11.3408
11.0736
11.2865
10.6891
10.5866
12.1656
10.0802
9.85279
8.63933
8.10127
8.89705
10.5176
10.2239
10.1899
9.02683
8.49189
9.23633
10.7918
10.5209
10.5727
9.49201
8.95511
9.61313
11.1251
10.9389
11.0119
10.0451
9.5086
10.0353
11.5289
11.4426
11.4866
10.6581
10.128
10.5093
12.0105
12.1079
11.946
11.3555
10.8292
10.9953
12.5736
10.0607
9.90412
8.60027
8.33488
9.2774
10.73
10.2206
10.3081
9.06201
8.77646
9.66151
11.0505
10.5237
10.7207
9.57915
9.28876
10.08
11.4198
10.9213
11.1224
10.1439
9.88295
10.5345
11.8416
11.4192
11.5902
10.7804
10.5357
11.0396
12.3498
12.1551
12.1283
11.5116
11.2124
11.5143
12.928
10.2842
10.1966
8.77795
8.29195
9.56587
11.1445
10.4076
10.6008
9.20529
8.70888
9.93641
11.4331
10.7099
11.0314
9.72746
9.20163
10.3465
11.7946
11.1809
11.5236
10.391
9.78511
10.7999
12.2392
11.7449
12.0661
11.1047
10.4386
11.3033
12.7569
12.4925
12.573
11.8154
11.1888
11.8156
13.3675
10.3648
10.4675
8.98472
8.44364
9.84513
11.3649
10.4867
10.8948
9.45007
8.89286
10.2368
11.6883
10.7876
11.3353
9.99256
9.4122
10.6652
12.0745
11.2411
11.7959
10.6384
10.0156
11.1298
12.5318
11.794
12.3184
11.3419
10.6849
11.6464
13.0648
12.5789
12.8588
12.0606
11.4145
12.1521
13.6745
10.4175
10.441
9.12211
8.59952
9.9834
11.6048
10.54
10.8707
9.57429
9.02958
10.3676
11.9194
10.8423
11.3139
10.1143
9.53876
10.793
12.2979
11.2989
11.7841
10.7709
10.137
11.2607
12.7478
11.8555
12.3141
11.484
10.8047
11.7764
13.2724
12.6441
12.8629
12.2324
11.5776
12.2911
13.8843
10.191
10.3357
9.17083
8.69974
10.0883
11.5597
10.326
10.7635
9.6535
9.15441
10.4755
11.8708
10.6394
11.2122
10.2129
9.68158
10.9039
12.2455
11.1146
11.6965
10.8839
10.2973
11.3722
12.6941
11.6858
12.2406
11.6092
10.9803
11.8932
13.2213
12.4549
12.7892
12.3303
11.7324
12.4114
13.8247
10.2806
10.2496
9.31317
8.98872
10.245
11.7685
10.4408
10.6571
9.78228
9.43105
10.6322
12.0707
10.7583
11.0985
10.3332
9.95098
11.0619
12.443
11.1908
11.5732
10.9888
10.5589
11.5353
12.8924
11.736
12.1071
11.7037
11.2355
12.0566
13.4179
12.5263
12.6803
12.4613
12.0129
12.5754
14.0344
10.291
10.3427
9.21305
8.95972
10.435
11.8528
10.4635
10.7521
9.69784
9.41878
10.8325
12.1815
10.7987
11.21
10.2596
9.94794
11.2687
12.5698
11.2687
11.7333
10.9386
10.5689
11.7406
13.0179
11.8425
12.2977
11.6731
11.2574
12.2626
13.5475
12.5996
12.8256
12.4113
12.0193
12.7782
14.1854
10.3199
10.2529
9.59595
9.26338
10.3693
11.8432
10.4728
10.7028
10.0846
9.71448
10.7658
12.1377
10.7841
11.1474
10.6529
10.2453
11.1979
12.5107
11.2184
11.5855
11.3152
10.8495
11.6673
12.9718
11.7585
12.0974
12.0363
11.5249
12.1859
13.5054
12.5516
12.6774
12.7988
12.3215
12.7064
14.1286
10.3449
10.3886
9.50987
9.19048
10.4635
11.7918
10.4999
10.8283
10.0053
9.65198
10.8579
12.0958
10.8221
11.2823
10.5775
10.1873
11.2892
12.4721
11.2819
11.7588
11.2543
10.8032
11.7543
12.9252
11.843
12.2945
11.988
11.4879
12.2719
13.4581
12.6237
12.8479
12.737
12.2667
12.7986
14.1021
10.4181
10.3144
9.43803
9.11161
10.5186
11.9422
10.5751
10.7678
9.92192
9.5692
10.9312
12.2414
10.8972
11.2233
10.4903
10.0983
11.3691
12.6181
11.3548
11.6961
11.1672
10.693
11.8337
13.0774
11.9145
12.2287
11.9009
11.3625
12.3452
13.6105
12.6904
12.7679
12.6584
12.163
12.8455
14.251
10.2265
10.2354
9.4471
9.12196
10.4921
11.7048
10.3859
10.6738
9.94048
9.58434
10.8801
11.9911
10.7081
11.1233
10.5155
10.1186
11.3066
12.3587
11.165
11.5958
11.2076
10.7293
11.7674
12.8121
11.7266
12.1342
11.9514
11.4105
12.281
13.346
12.504
12.6874
12.676
12.1862
12.8036
14.0033
10.285
10.1006
9.3044
9.04908
10.2533
11.4932
10.4539
10.5116
9.78672
9.50784
10.6632
11.7768
10.7845
10.9552
10.3472
10.0357
11.1018
12.1403
11.2475
11.4382
11.0045
10.6364
11.5774
12.5892
11.812
11.9782
11.7242
11.3094
12.0995
13.1154
12.5655
12.5379
12.4869
12.0878
12.59
13.736
10.3625
10.4019
9.36736
8.93371
10.0991
11.2158
10.5342
10.8283
9.85891
9.39817
10.4834
11.4894
10.8704
11.2944
10.435
9.92913
10.9057
11.8442
11.3406
11.8276
11.1454
10.5463
11.3703
12.2853
11.9198
12.4013
11.903
11.2351
11.8879
12.8082
12.6795
12.8961
12.6162
12.0013
12.3961
13.443
10.0756
9.96869
9.97215
9.43461
9.83635
11.1003
10.1951
10.4229
10.4811
9.89719
10.2185
11.3799
10.4993
10.8529
11.0576
10.4395
10.6391
11.7355
10.9881
11.2498
11.6872
11.0491
11.1054
12.1743
11.5538
11.7403
12.3841
11.7282
11.622
12.6906
12.3028
12.3694
13.1727
12.5112
12.1215
13.2877
10.2202
10.3247
10.0399
9.31633
9.73083
10.9666
10.3397
10.78
10.5531
9.78736
10.1028
11.2515
10.654
11.233
11.1401
10.331
10.5135
11.6063
11.1582
11.6953
11.8125
10.952
10.9682
12.0379
11.7448
12.2293
12.5432
11.6426
11.4779
12.5484
12.5067
12.8065
13.3083
12.4157
11.9831
13.1493
10.4359
10.4431
10.2358
9.27037
9.4923
10.8989
10.5592
10.9369
10.7544
9.73704
9.85363
11.1801
10.8785
11.3991
11.3474
10.2789
10.2574
11.5336
11.3974
11.8444
12.0171
10.8837
10.7078
11.9635
11.995
12.3726
12.7468
11.562
11.21
12.4692
12.753
12.9467
13.5156
12.3519
11.7084
13.0602
10.4864
10.6156
10.2355
9.16193
9.42566
10.7707
10.6125
11.0889
10.7546
9.63302
9.77946
11.0486
10.9412
11.5526
11.3481
10.1744
10.1755
11.3941
11.476
12.022
12.0278
10.7851
10.6168
11.8135
12.0882
12.5652
12.7651
11.4678
11.1129
12.3113
12.8513
13.1448
13.5303
12.2471
11.6137
12.8965
10.6488
10.6242
10.3696
9.18002
9.24842
10.703
10.7824
11.1361
10.8914
9.65289
9.60168
10.9727
11.1117
11.6052
11.49
10.1977
9.99645
11.3155
11.6399
12.0457
12.1649
10.7981
10.4367
11.7363
12.2449
12.572
12.8991
11.4723
10.9299
12.2341
13.011
13.1518
13.6703
12.2566
11.421
12.8141
10.6323
10.7215
10.298
9.02036
9.28144
10.7629
10.7658
11.2049
10.8179
9.48956
9.62559
11.0427
11.1026
11.6709
11.4133
10.0284
10.0139
11.3895
11.6461
12.1313
12.0927
10.6298
10.4478
11.8081
12.2656
12.6702
12.8283
11.3044
10.9359
12.3038
13.0388
13.2606
13.5879
12.0854
11.4354
12.8888
10.8711
10.7666
10.0877
8.78
9.17867
10.8432
11.0145
11.2982
10.6075
9.25333
9.54366
11.1288
11.3593
11.777
11.2037
9.79558
9.9402
11.4831
11.9143
12.2219
11.8746
10.3912
10.3765
11.9108
12.5438
12.7498
12.6059
11.0612
10.8639
12.413
13.3087
13.3029
13.3681
11.8316
11.3296
12.9934
10.8253
10.846
9.97117
8.52803
9.12879
10.8468
10.9746
11.3536
10.4919
8.98855
9.46694
11.1196
11.3317
11.8359
11.0908
9.51852
9.84663
11.4637
11.9109
12.3172
11.7864
10.1121
10.2712
11.8847
12.5649
12.8712
12.5297
10.781
10.75
12.3803
13.3361
13.4172
13.2427
11.5531
11.243
12.9639
11.3155
11.05
9.68556
8.41496
9.09978
10.981
11.4918
11.6441
10.2372
8.88231
9.47672
11.2853
11.8657
12.1458
10.8398
9.42571
9.8771
11.6439
12.4442
12.5582
11.4678
10.0323
10.3154
12.0677
13.0937
13.0461
12.1599
10.7093
10.8044
12.5678
13.8378
13.526
12.9037
11.4605
11.2502
13.1142
11.0578
10.8181
9.87387
8.81549
9.3725
11.1164
11.2472
11.377
10.4246
9.26776
9.73127
11.4145
11.6139
11.8426
11.0201
9.80853
10.1299
11.7707
12.1645
12.1937
11.6287
10.4175
10.5723
12.1939
12.7886
12.6568
12.3077
11.0926
11.0686
12.6965
13.536
13.2436
13.0554
11.8487
11.5664
13.2674
11.3352
11.2579
9.38799
8.67116
9.9422
11.5227
11.5352
11.7265
9.87771
9.13592
10.3476
11.8161
11.917
12.2351
10.4494
9.66315
10.7787
12.1859
12.4392
12.8179
11.1474
10.28
11.2496
12.6406
13.0582
13.4173
11.8926
10.9669
11.7688
13.1713
13.8555
13.886
12.6119
11.7045
12.2437
13.7845
11.1187
11.2484
9.63063
9.13533
10.4789
11.9164
11.3068
11.7199
10.1256
9.5903
10.8862
12.2453
11.6534
12.1832
10.6839
10.1249
11.3315
12.6366
12.0869
12.5964
11.2899
10.743
11.8149
13.0954
12.6366
13.091
11.9706
11.4231
12.3469
13.6343
13.52
13.7318
12.7722
12.1713
12.8645
14.2693
11.1502
11.3064
9.2922
8.62849
10.8261
12.2263
11.3046
11.7691
9.7559
9.08266
11.2548
12.5331
11.664
12.2661
10.3273
9.60311
11.7143
12.9269
12.2366
12.8516
11.094
10.218
12.209
13.4193
12.9014
13.475
11.8938
10.9066
12.7508
13.9855
13.6829
13.9664
12.5654
11.673
13.2608
14.6416
11.246
11.5876
9.57746
8.93382
11.2715
12.5748
11.3836
12.0529
10.0505
9.38858
11.7118
12.9229
11.717
12.5255
10.6126
9.9155
12.1853
13.3378
12.2239
13.0063
11.3069
10.5298
12.6858
13.828
12.8332
13.5546
12.0524
11.2135
13.2344
14.3976
13.6742
14.1354
12.7776
11.987
13.7686
15.0622
11.2549
11.5568
9.70833
9.23784
11.699
12.853
11.3933
12.0267
10.1763
9.69903
12.1602
13.1702
11.7275
12.5114
10.7444
10.232
12.6496
13.5851
12.2301
13.02
11.4689
10.8568
13.1668
14.1078
12.8347
13.5861
12.2361
11.5515
13.7296
14.7018
13.6859
14.1631
12.9628
12.336
14.2667
15.4144
11.1681
11.5077
9.77671
9.49186
12.0043
12.9518
11.32
11.9713
10.2611
9.96538
12.4752
13.2959
11.6608
12.4455
10.8301
10.5095
12.9733
13.7164
12.1614
12.921
11.5205
11.1369
13.4843
14.215
12.7586
13.4657
12.2663
11.8315
14.0442
14.7981
13.5947
14.0851
13.0282
12.6208
14.6048
15.5272
11.1724
11.4178
9.9018
9.53518
12.0418
12.9603
11.3614
11.8705
10.3584
10.0094
12.5076
13.2456
11.717
12.3658
10.9359
10.5461
12.9971
13.6532
12.1966
12.9221
11.7179
11.1618
13.5039
14.2045
12.7877
13.5312
12.5327
11.853
14.0639
14.8233
13.6185
14.1138
13.2388
12.6627
14.6296
15.5432
11.2901
11.6289
9.94726
9.54425
12.0784
13.0017
11.4805
12.0777
10.4132
10.0274
12.5395
13.32
11.8395
12.5695
10.9876
10.568
13.0277
13.7388
12.3232
13.1113
11.7419
11.18
13.5281
14.2802
12.9136
13.7048
12.5369
11.8666
14.0857
14.8914
13.7361
14.2985
13.268
12.677
14.669
15.5916
11.3281
11.6475
10.2444
9.64507
12.075
13.0431
11.4818
12.1313
10.7167
10.1233
12.5537
13.3716
11.8196
12.6235
11.301
10.6664
13.0603
13.791
12.3087
13.133
12.063
11.2761
13.5829
14.3066
12.9011
13.7114
12.864
11.964
14.1527
14.9014
13.7532
14.3211
13.5936
12.7973
14.7154
15.6278
11.3892
11.87
10.2797
9.59631
12.1104
13.0743
11.5376
12.3436
10.7607
10.083
12.5854
13.4293
11.8778
12.8384
11.349
10.6292
13.0903
13.8636
12.3785
13.3645
12.1155
11.2426
13.6114
14.3903
12.9824
13.9524
12.9196
11.9339
14.1833
14.9936
13.838
14.5573
13.6417
12.7615
14.756
15.6973
11.5414
11.8986
10.3176
9.6803
12.1502
13.1143
11.6953
12.395
10.7903
10.1626
12.6325
13.4412
12.0376
12.9001
11.3764
10.7073
13.1413
13.8677
12.5299
13.428
12.1427
11.3158
13.6672
14.4048
13.1314
14.0173
12.9495
12.0045
14.241
15.0142
14.0003
14.6052
13.6874
12.8465
14.8081
15.7461
11.3375
11.7839
10.343
9.78294
12.2517
13.0025
11.4996
12.2576
10.8302
10.2767
12.7337
13.3451
11.8474
12.7567
11.4273
10.8314
13.2434
13.7725
12.3527
13.3033
12.217
11.4573
13.7643
14.2916
12.9659
13.9117
13.0397
12.1608
14.3366
14.893
13.818
14.5044
13.7377
12.9865
14.9139
15.6326
11.4541
11.6578
10.2308
10.0622
12.1415
12.7973
11.6469
12.1182
10.7043
10.5507
12.622
13.0818
12.005
12.6131
11.2784
11.1047
13.1253
13.4904
12.4751
13.1385
11.9995
11.7345
13.6434
14.0404
13.0563
13.7194
12.7742
12.4364
14.2164
14.6616
13.8937
14.3307
13.5584
13.255
14.8001
15.4023
11.281
11.7095
10.2189
9.99143
12.0759
12.7109
11.4708
12.162
10.7045
10.486
12.5442
13.0207
11.8273
12.6629
11.2952
11.0445
13.042
13.4405
12.2988
13.2232
12.0669
11.692
13.562
13.9966
12.8897
13.8352
12.8767
12.4101
14.1404
14.621
13.7495
14.4307
13.5973
13.2081
14.7307
15.327
11.3289
11.651
10.1209
10.0043
12.067
12.748
11.4859
12.1402
10.6166
10.4828
12.5532
13.0759
11.8321
12.6351
11.1949
11.0411
13.0679
13.4947
12.3428
13.1342
11.8878
11.6947
13.6024
14.003
12.9512
13.6976
12.6399
12.4141
14.1846
14.5968
13.7826
14.302
13.4294
13.2167
14.7487
15.346
11.2043
11.7517
10.0869
9.91087
12.0518
12.756
11.3479
12.2224
10.5859
10.3963
12.5295
13.1046
11.6879
12.717
11.1723
10.9559
13.0393
13.5365
12.1947
13.2377
11.896
11.6189
13.5764
14.0636
12.8069
13.8192
12.67
12.3462
14.1633
14.6688
13.6758
14.4306
13.4292
13.1299
14.73
15.3812
11.2485
11.6607
10.0937
9.92951
12.0003
12.724
11.394
12.1572
10.5938
10.4064
12.4815
13.0427
11.735
12.6601
11.1817
10.9631
12.991
13.4638
12.2448
13.1766
11.9011
11.6191
13.5257
13.9943
12.8589
13.7571
12.6734
12.3415
14.1087
14.6014
13.7154
14.3485
13.4371
13.1397
14.6705
15.3412
11.1281
11.5512
10.0266
9.95327
12.0602
12.6427
11.2835
12.0177
10.5291
10.4428
12.5397
12.9764
11.6369
12.5124
11.116
11.0045
13.0471
13.3965
12.1734
13.0496
11.8394
11.6652
13.574
13.9092
12.8028
13.6425
12.6153
12.391
14.1513
14.5054
13.6213
14.234
13.3771
13.1809
14.7185
15.2415
11.0914
11.3024
10.3525
10.341
11.9233
12.4639
11.2863
11.7709
10.8519
10.832
12.3992
12.7433
11.64
12.2635
11.4433
11.3971
12.8991
13.1454
12.0972
12.7751
12.1658
12.0483
13.4195
13.6829
12.6669
13.355
12.9424
12.767
13.9939
14.2952
13.5084
13.9829
13.7157
13.5695
14.5671
15.0389
11.1796
11.463
10.2462
10.1848
11.825
12.435
11.3887
11.9232
10.749
10.6841
12.2883
12.7383
11.7649
12.4314
11.3442
11.2475
12.7787
13.1485
12.2713
13.0102
12.0942
11.8987
13.2917
13.6864
12.8765
13.6288
12.892
12.6203
13.8622
14.2954
13.6647
14.1895
13.6515
13.4277
14.4444
15.0024
11.1665
11.3278
10.759
10.6003
11.7954
12.4983
11.3422
11.8311
11.2837
11.0986
12.2766
12.8206
11.6873
12.3206
11.8884
11.6757
12.7826
13.2325
12.1579
12.786
12.5885
12.3293
13.309
13.7336
12.7258
13.3315
13.3485
13.0516
13.8846
14.3201
13.556
13.9648
14.1455
13.8726
14.4428
15.0537
11.2268
11.5325
10.7243
10.497
11.8024
12.5665
11.4039
12.0232
11.25
10.9993
12.2708
12.9068
11.7591
12.5211
11.8568
11.574
12.7691
13.329
12.2569
13.0305
12.5768
12.2292
13.2921
13.8424
12.8482
13.6036
13.3526
12.9549
13.8672
14.4349
13.6616
14.2034
14.1394
13.7795
14.4401
15.1428
11.3817
11.5504
10.7432
10.5478
11.8409
12.6129
11.5633
12.0622
11.2663
11.0514
12.3269
12.9333
11.9198
12.5717
11.8751
11.6279
12.8329
13.3521
12.4088
13.0909
12.6026
12.2802
13.3592
13.8771
12.9959
13.6674
13.3837
13.0048
13.9362
14.4784
13.8212
14.2418
14.1704
13.8349
14.4946
15.2079
11.1832
11.4262
10.7893
10.6935
12.0014
12.5876
11.3613
11.9077
11.3113
11.1976
12.4738
12.9143
11.7072
12.3868
11.9114
11.7771
12.9765
13.3298
12.1718
12.8426
12.6029
12.4319
13.4989
13.8379
12.7381
13.3827
13.3577
13.154
14.0736
14.4297
13.5804
14.0429
14.1636
13.973
14.6578
15.1725
11.3095
11.4672
10.2936
10.1908
11.9387
12.5032
11.522
11.9395
10.7922
10.6915
12.4238
12.7906
11.8994
12.4591
11.3915
11.255
12.9261
13.1968
12.4021
13.0592
12.1638
11.8991
13.443
13.7365
13.0084
13.6923
12.9778
12.617
14.0151
14.3506
13.8052
14.2314
13.7184
13.433
14.5811
15.0856
11.1586
11.4988
10.3369
10.192
11.978
12.5092
11.3427
11.9509
10.8294
10.6834
12.4339
12.8068
11.6862
12.4301
11.4113
11.2432
12.9258
13.2178
12.1158
12.9065
12.1135
11.8817
13.4447
13.7629
12.6669
13.459
12.8737
12.5873
14.0194
14.3782
13.5567
14.1333
13.6582
13.3847
14.6118
15.0932
11.2325
11.511
9.81237
9.38
11.9832
12.6374
11.3911
11.9915
10.295
9.8581
12.4707
12.9698
11.7509
12.5002
10.8861
10.4016
12.9837
13.3894
12.3163
13.0776
11.6768
11.031
13.5129
13.8968
12.9737
13.7038
12.5002
11.7354
14.0884
14.49
13.7569
14.2441
13.1887
12.5405
14.6299
15.2243
11.1781
11.6631
9.84081
9.37563
12.0657
12.7281
11.3176
12.1351
10.3272
9.84675
12.5304
13.0683
11.656
12.6238
10.9113
10.3863
13.0343
13.4956
12.1724
13.1305
11.6587
11.0129
13.5663
14.0185
12.7926
13.7078
12.4486
11.71
14.1448
14.6204
13.6486
14.3272
13.1682
12.5054
14.7096
15.3386
11.2269
11.6427
9.8582
9.42535
12.1472
12.7811
11.3688
12.1284
10.3407
9.90067
12.635
13.1053
11.7096
12.631
10.9298
10.4426
13.1496
13.5317
12.2239
13.1597
11.6986
11.0679
13.684
14.0703
12.8414
13.7498
12.5026
11.7655
14.2653
14.6839
13.7053
14.353
13.2144
12.5621
14.8139
15.4187
11.1648
11.6143
9.87603
9.54189
12.2992
12.7696
11.3193
12.0849
10.364
10.0181
12.7732
13.0989
11.6667
12.5725
10.9454
10.5614
13.282
13.5206
12.1802
13.0704
11.6773
11.1862
13.8096
14.0396
12.7914
13.6395
12.456
11.8801
14.3848
14.6412
13.64
14.2822
13.1974
12.6781
14.957
15.3882
11.2057
11.525
9.94146
9.52165
12.2108
12.6448
11.3997
11.9899
10.4088
10.004
12.6929
12.9292
11.7636
12.5005
11.0002
10.5437
13.2
13.3385
12.253
13.0723
11.8122
11.1552
13.7223
13.8883
12.8553
13.6996
12.6512
11.8438
14.2964
14.5113
13.7039
14.3047
13.3367
12.6486
14.8593
15.2541
11.3277
11.7397
9.9164
9.43557
12.1811
12.687
11.5266
12.2007
10.387
9.91483
12.6417
12.9891
11.8971
12.7094
10.9727
10.449
13.1365
13.4042
12.3965
13.2765
11.7635
11.0536
13.6523
13.9552
13.0039
13.8946
12.587
11.7351
14.2222
14.5743
13.8429
14.5016
13.2954
12.5481
14.8049
15.2838
11.3852
11.7556
10.2373
9.57646
12.2274
12.8073
11.5457
12.2545
10.723
10.0571
12.7102
13.1333
11.8943
12.7621
11.3207
10.5996
13.2241
13.5525
12.3961
13.284
12.1044
11.2049
13.7547
14.0639
13.0024
13.878
12.9228
11.8886
14.3301
14.6606
13.879
14.5103
13.6337
12.7089
14.8784
15.4076
11.5147
12.0369
10.2436
9.44439
12.2136
12.9183
11.6716
12.5228
10.7279
9.92202
12.6814
13.2616
12.0257
13.0332
11.3243
10.4573
13.1842
13.6899
12.5455
13.5806
12.1155
11.058
13.7083
14.2134
13.1692
14.1885
12.9383
11.7388
14.2795
14.8136
14.0465
14.8059
13.6454
12.5683
14.8418
15.5249
11.7227
12.0705
10.3173
9.5223
12.1202
12.8614
11.8864
12.5858
10.801
10.0015
12.5958
13.1782
12.2453
13.1069
11.3984
10.5416
13.1018
13.5987
12.7632
13.6474
12.1831
11.1439
13.6292
14.1296
13.3897
14.2544
13.0059
11.8265
14.2025
14.736
14.2782
14.8591
13.7261
12.654
14.7517
15.4718
11.6746
12.1039
10.3632
9.50569
12.0987
12.8127
11.8562
12.6001
10.8537
9.98848
12.5649
13.1377
12.2341
13.1272
11.4608
10.5287
13.0608
13.5511
12.7914
13.7285
12.2896
11.1376
13.5719
14.0583
13.4488
14.3771
13.141
11.8292
14.1323
14.6456
14.2912
14.9346
13.8134
12.6688
14.6988
15.3737
11.7019
11.8376
10.7557
10.2598
11.9307
12.6267
11.9053
12.3222
11.2505
10.7522
12.3899
12.904
12.2744
12.8212
11.8406
11.3101
12.8769
13.3002
12.7473
13.3113
12.5525
11.9326
13.3832
13.8271
13.3273
13.8776
13.3231
12.6277
13.9431
14.4286
14.1935
14.5491
14.125
13.4454
14.51
15.1577
11.7302
12.093
10.7802
10.0306
11.6537
12.5318
11.9376
12.5789
11.2861
10.5244
12.0893
12.82
12.3225
13.109
11.9008
11.0763
12.555
13.2146
12.8372
13.7145
12.7112
11.7051
13.044
13.7395
13.4578
14.3533
13.5505
12.4134
13.5924
14.3299
14.2911
14.8957
14.2696
13.2518
14.174
15.0053
11.322
11.3046
11.4553
10.7571
11.4174
12.4056
11.48
11.8153
11.9915
11.2523
11.8583
12.721
11.8323
12.2779
12.6023
11.8292
12.3356
13.1126
12.3903
12.6603
13.2727
12.4751
12.8427
13.5746
13.0106
13.1559
14.0087
13.1903
13.3991
14.1245
13.7637
13.8652
14.8429
14.0218
13.956
14.8262
11.3417
11.568
11.4736
10.5013
11.1631
12.3134
11.4828
12.0568
12.0078
10.9964
11.5793
12.6284
11.8343
12.5322
12.6278
11.5633
12.0337
13.0191
12.4046
12.9885
13.3533
12.2059
12.5239
13.4948
13.043
13.5295
14.1292
12.923
13.0678
14.0442
13.8158
14.1838
14.93
13.763
13.6284
14.6947
11.4734
11.5887
11.6304
10.3833
10.7096
12.0612
11.6136
12.1266
12.1774
10.8685
11.1097
12.3723
11.9668
12.6126
12.8048
11.4345
11.5535
12.7534
12.5547
13.0421
13.5183
12.0744
12.0403
13.2062
13.2038
13.5711
14.2876
12.7889
12.5788
13.739
13.9613
14.213
15.0892
13.6288
13.1262
14.3806
11.4396
11.6747
11.5682
10.187
10.5706
11.9019
11.571
12.1716
12.1079
10.6714
10.953
12.1992
11.9245
12.6472
12.7309
11.2295
11.3804
12.5679
12.5196
13.0971
13.4539
11.8643
11.8529
13.0157
13.1763
13.6372
14.2284
12.5744
12.3783
13.539
13.9453
14.296
15.0271
13.411
12.9226
14.1559
11.491
11.526
11.6222
10.1546
10.2816
11.7543
11.6349
12.0715
12.1718
10.6363
10.6605
12.0491
11.9913
12.5539
12.8006
11.198
11.083
12.4117
12.5873
12.9656
13.5066
11.829
11.5491
12.8439
13.2395
13.4819
14.2687
12.5349
12.0685
13.3561
13.9826
14.127
15.0707
13.367
12.6029
13.9752
11.3944
11.5179
11.4669
9.93368
10.2658
11.7455
11.5267
12.0141
12.0074
10.4107
10.6307
12.0407
11.8812
12.4804
12.6277
10.9632
11.0438
12.4048
12.4837
12.9064
13.3361
11.5906
11.506
12.842
13.1419
13.4297
14.097
12.2927
12.0191
13.354
13.8966
14.098
14.89
13.1196
12.55
13.9655
11.534
11.4545
11.2293
9.65623
9.98008
11.6258
11.6728
12.0076
11.7744
10.1339
10.3604
11.9226
12.0311
12.4882
12.3981
10.6892
10.7739
12.2855
12.6431
12.893
13.0946
11.3101
11.224
12.7177
13.3079
13.4017
13.8478
12.0062
11.728
13.2267
14.0433
14.0215
14.6353
12.8194
12.2353
13.8333
11.3926
11.3937
10.9599
9.30565
9.8702
11.5235
11.5233
11.9012
11.4999
9.7723
10.2221
11.8002
11.8845
12.3729
12.1201
10.3139
10.6188
12.152
12.514
12.8099
12.8359
10.9308
11.0642
12.5857
13.1958
13.3396
13.597
11.6233
11.5616
13.0922
13.9412
13.9667
14.3445
12.4311
12.0771
13.6891
11.6851
11.3829
10.5716
9.09317
9.69399
11.4992
11.8457
12.0026
11.1553
9.56516
10.0793
11.805
12.2218
12.5018
11.789
10.1212
10.4889
12.1651
12.8487
12.8651
12.443
10.747
10.9315
12.5863
13.5232
13.3274
13.1551
11.4438
11.4277
13.0857
14.2257
13.8694
13.9137
12.2317
11.9065
13.6607
11.357
11.0249
10.5746
9.3419
9.88266
11.5062
11.5183
11.5693
11.137
9.79803
10.2438
11.7946
11.8816
12.0103
11.7426
10.3472
10.6479
12.1474
12.4796
12.2885
12.3356
10.9673
11.0974
12.5713
13.1221
12.706
13.0045
11.6518
11.5985
13.0727
13.8283
13.3979
13.8043
12.4321
12.1086
13.6615
11.6229
11.6096
9.79154
8.56779
10.0755
11.6178
11.8149
12.111
10.2895
9.02962
10.466
11.8949
12.2007
12.6432
10.89
9.55146
10.8847
12.2513
12.7504
13.2517
11.6676
10.1566
11.3385
12.6954
13.3885
13.8826
12.4717
10.8392
11.8438
13.2153
14.1833
14.3548
13.1495
11.6109
12.3292
13.8286
11.5971
11.6564
9.92486
8.81182
10.3697
11.8186
11.7724
12.1317
10.4079
9.25989
10.7432
12.1059
12.1302
12.606
10.9631
9.77664
11.1605
12.472
12.6207
13.0484
11.5836
10.3603
11.6214
12.9287
13.1994
13.5601
12.277
11.0143
12.1308
13.4551
14.0121
14.181
13.0984
11.8012
12.6429
14.0618
10.8761
11.0292
10.4614
8.71976
10.4918
11.9476
11.0128
11.5163
10.9295
9.18767
10.8787
12.2418
11.348
12.0077
11.535
9.70659
11.306
12.6079
11.899
12.5624
12.3731
10.265
11.7672
13.0456
12.5295
13.1941
13.2268
10.9136
12.2748
13.564
13.3095
13.7627
13.8522
11.7344
12.7726
14.2004
10.9504
11.1735
10.4733
8.70582
10.5831
12.0551
11.0634
11.6462
10.947
9.16556
10.9537
12.3529
11.3824
12.1162
11.5341
9.67549
11.3717
12.7234
11.9056
12.6017
12.2917
10.2167
11.8287
13.1718
12.5058
13.1702
13.0864
10.8472
12.3307
13.6921
13.2973
13.797
13.8003
11.689
12.8404
14.3061
10.9105
11.0346
10.5833
8.72048
10.4296
11.964
11.0191
11.5349
11.0586
9.18209
10.8011
12.263
11.334
12.0144
11.6546
9.69393
11.2182
12.63
11.8642
12.5017
12.429
10.2285
11.6716
13.0671
12.467
13.0757
13.235
10.8545
12.1711
13.5812
13.2478
13.6895
13.9372
11.6965
12.6718
14.1942
10.8142
11.0255
10.5012
8.58196
10.4049
11.9138
10.9157
11.4949
10.9795
9.0362
10.7599
12.2019
11.2288
11.9629
11.5711
9.54009
11.1657
12.5625
11.7625
12.4527
12.3377
10.0727
11.6151
13.0036
12.3663
13.0248
13.1352
10.6961
12.1094
13.5166
13.1474
13.6545
13.8336
11.5401
12.6108
14.1079
10.9227
10.8898
10.3919
8.52864
10.2438
11.8598
11.0382
11.3943
10.8698
8.98336
10.6074
12.1541
11.3513
11.8657
11.4616
9.49022
11.0145
12.5132
11.8676
12.3256
12.2143
10.0167
11.4564
12.9389
12.4567
12.8748
13.0026
10.6341
11.9444
13.4424
13.2206
13.4782
13.7088
11.4712
12.4336
14.0444
10.7296
10.7061
10.1583
8.30117
10.2416
11.8925
10.8301
11.1529
10.6271
8.7461
10.5928
12.1905
11.1374
11.6006
11.2086
9.24217
10.9938
12.5564
11.6623
12.0698
11.9629
9.76837
11.4399
12.9965
12.2565
12.6239
12.7476
10.3845
11.9282
13.5072
13.0223
13.2512
13.4305
11.2144
12.4103
14.0959
10.8603
10.5236
9.69946
8.04027
9.97211
11.7833
10.9716
11.0077
10.161
8.48418
10.3422
12.0843
11.2831
11.4574
10.7318
8.982
10.745
12.4485
11.8058
11.8951
11.4494
9.50206
11.1765
12.8791
12.3997
12.4246
12.2131
10.1114
11.6535
13.3849
13.1303
12.9928
12.9121
10.9229
12.1132
13.9751
10.4706
10.1512
9.31839
7.67677
9.77927
11.6551
10.6142
10.5878
9.78055
8.11421
10.1328
11.9491
10.9638
11.0529
10.3694
8.60467
10.5246
12.3101
11.5715
11.6344
11.197
9.14478
10.9579
12.7494
12.2371
12.2738
12.0315
9.77637
11.4364
13.2585
12.9122
12.7617
12.5904
10.5759
11.8955
13.8243
11.1909
10.4525
8.98569
8.30025
9.6715
11.5932
11.4228
10.9787
9.49159
8.74076
10.0482
11.9029
11.7878
11.4424
10.0442
9.258
10.4523
12.2661
12.2076
11.7988
10.5853
9.82493
10.8911
12.6862
12.7129
12.2299
11.2095
10.461
11.3742
13.1846
13.4618
12.7712
12.0236
11.2155
11.8158
13.754
10.945
10.2111
8.8715
8.26857
9.67514
11.5609
11.2093
10.6948
9.37429
8.71166
10.0553
11.8796
11.6044
11.1672
9.94406
9.22891
10.4594
12.2443
12.087
11.6356
10.5886
9.81891
10.8987
12.6661
12.6448
12.1587
11.2889
10.4808
11.3858
13.1664
13.3306
12.6543
12.0089
11.233
11.8331
13.7173
10.9561
10.1646
8.9793
8.55489
9.81605
11.6239
11.2162
10.6501
9.4866
9.0054
10.1957
11.9028
11.6092
11.1247
10.0571
9.5313
10.605
12.2598
12.0919
11.5988
10.6936
10.1308
11.0556
12.6993
12.6494
12.1231
11.3926
10.8003
11.5515
13.2129
13.3297
12.6076
12.1323
11.5545
12.0186
13.822
10.7707
10.3129
9.34341
8.87974
10.1374
11.7827
10.9881
10.7876
9.85117
9.33778
10.5437
12.1156
11.3418
11.2413
10.4262
9.87315
10.9705
12.4949
11.7642
11.6538
11.0642
10.4856
11.4213
12.9218
12.2839
12.137
11.7646
11.167
11.9208
13.4334
13.0426
12.6815
12.519
11.9304
12.3938
14.0512
10.4057
9.80453
9.60083
9.16859
10.1691
11.6795
10.5387
10.2385
10.1147
9.63291
10.5662
11.9498
10.8794
10.655
10.697
10.1744
10.9912
12.3187
11.4873
11.0667
11.3582
10.7939
11.4531
12.8018
12.1392
11.5603
12.0735
11.483
11.9681
13.3512
12.7478
12.117
12.8075
12.2572
12.4775
13.9778
10.3092
9.98677
9.95269
9.54862
10.5322
11.8704
10.4073
10.4156
10.4655
10.0171
10.9493
12.1909
10.7091
10.8093
11.0434
10.5677
11.3912
12.5788
11.2408
11.1332
11.6674
11.1952
11.8566
13.0439
11.8364
11.5715
12.3581
11.8879
12.3767
13.5867
12.5353
12.2284
13.1397
12.6655
12.8978
14.2233
10.4263
10.387
9.83078
9.31479
10.6869
11.9423
10.5323
10.8398
10.3327
9.78709
11.1133
12.2304
10.8488
11.296
10.9236
10.3302
11.562
12.6166
11.3882
11.7778
11.646
10.9533
12.0348
13.1134
12.005
12.3268
12.412
11.649
12.5615
13.6774
12.7571
12.8774
13.1261
12.4361
13.0864
14.3491
10.4757
10.4373
9.82365
9.46623
10.8596
11.9317
10.6078
10.8748
10.3215
9.93474
11.2777
12.2307
10.9383
11.3174
10.8999
10.4776
11.7246
12.6139
11.4809
11.7692
11.5835
11.1004
12.1922
13.089
12.0927
12.3025
12.3232
11.7913
12.7146
13.6404
12.8278
12.9178
13.0797
12.5766
13.259
14.3221
10.8891
10.7667
9.77605
9.41853
10.6415
11.7252
11.0785
11.2404
10.2754
9.89111
11.0682
11.9864
11.4246
11.7185
10.8607
10.4352
11.5112
12.3575
11.8784
12.1996
11.5608
11.054
11.9704
12.8587
12.4284
12.7443
12.3136
11.7422
12.4903
13.4281
13.2162
13.3182
13.0631
12.5173
13.0192
14.0856
10.978
10.9239
9.65369
9.15648
10.4462
11.6552
11.1665
11.3816
10.147
9.61584
10.8258
11.904
11.5157
11.8544
10.725
10.145
11.2416
12.2687
11.9757
12.3363
11.4212
10.7527
11.6936
12.7827
12.5321
12.8776
12.1681
11.43
12.2068
13.3512
13.3292
13.4626
12.9165
12.2072
12.7599
13.9665
11.0845
10.709
9.52742
8.80746
10.3625
11.7941
11.2287
11.1926
10.0313
9.26591
10.7844
12.1202
11.5719
11.6453
10.6134
9.80049
11.226
12.4997
12.1287
12.0658
11.287
10.4102
11.6864
12.9289
12.7546
12.5731
12.0178
11.0893
12.1948
13.4472
13.4801
13.1556
12.7602
11.8488
12.6627
14.0866
11.1725
11.0184
9.43177
8.34204
10.042
11.7439
11.3004
11.4958
9.93663
8.78487
10.4104
12.0383
11.6439
11.9647
10.5264
9.29725
10.8164
12.4083
12.2129
12.4404
11.2453
9.891
11.2645
12.866
12.8572
12.9722
12.0014
10.5607
11.761
13.3901
13.6088
13.4894
12.6954
11.3418
12.2541
13.9848
11.1592
10.5921
9.91499
8.75806
9.72684
11.5524
11.2926
11.1455
10.48
9.2186
10.1229
11.8764
11.6328
11.5834
11.0917
9.76627
10.5404
12.2514
12.2192
11.8545
11.7053
10.3832
10.9899
12.6866
12.8532
12.2455
12.3787
11.0662
11.4904
13.2014
13.5243
12.8378
13.1148
11.8183
11.9457
13.771
11.1809
10.6504
9.98479
8.84632
9.78984
11.5948
11.3074
11.1675
10.5339
9.28851
10.1552
11.8941
11.6412
11.5837
11.1239
9.81884
10.5555
12.2564
12.2141
11.8391
11.701
10.4137
10.9973
12.6952
12.8325
12.2134
12.3514
11.0774
11.4879
13.2046
13.4934
12.8328
13.1464
11.8683
11.977
13.7647
10.8072
10.4908
10.0099
8.6496
10.0858
11.8465
10.9148
10.9699
10.5128
9.11773
10.4852
12.1508
11.24
11.4222
11.1189
9.64869
10.9044
12.5196
11.8217
11.8751
11.8777
10.2433
11.3485
12.9553
12.4618
12.409
12.6662
10.9174
11.8404
13.4715
13.1681
12.96
13.336
11.6952
12.2989
14.093
10.8062
10.5466
10.1221
8.86916
10.364
12.1103
10.911
11.0088
10.6171
9.31401
10.7401
12.4196
11.224