/*--------------------------------*- C++ -*----------------------------------*\
  =========                 |
  \\      /  F ield         | OpenFOAM: The Open Source CFD Toolbox
   \\    /   O peration     | Website:  https://openfoam.org
    \\  /    A nd           | Version:  13
     \\/     M anipulation  |
\*---------------------------------------------------------------------------*/
FoamFile
{
    format      ascii;
    class       volSymmTensorField;
    location    "0.001";
    object      sigma;
}
// * * * * * * * * * * * * * * * * * * * * * * * * * * * * * * * * * * * * * //

dimensions      [1 -1 -2 0 0 0 0];

internalField   nonuniform List<symmTensor> 
17280
(
(-7.46231 3.23324 5.57664 -8.27759 0.962691 -8.30531)
(-4.87363 2.13038 6.57508 -5.79614 0.539901 -5.03416)
(-6.06331 0.723696 7.32124 -7.50418 0.284615 -5.96983)
(-5.11462 -0.769235 7.35358 -6.35983 -0.196688 -5.006)
(-5.9916 -1.71734 6.71441 -7.0308 -0.691033 -6.28386)
(-8.45473 -2.91416 5.47186 -9.44657 -1.0316 -9.34173)
(-6.12433 3.23297 5.60138 -6.98757 0.954793 -6.62204)
(-3.53517 2.1308 6.60506 -4.48657 0.531106 -3.36936)
(-4.77224 0.72473 7.35071 -6.24523 0.284359 -4.35975)
(-3.82095 -0.76508 7.38333 -5.09647 -0.149992 -3.39453)
(-4.73506 -1.71771 6.74311 -5.80423 -0.664406 -4.71812)
(-7.50604 -2.91773 5.49886 -8.55213 -1.05328 -8.12795)
(-4.52909 3.22207 5.65175 -5.45755 1.02107 -4.60709)
(-1.3768 2.13705 6.65727 -2.34802 0.523735 -0.711537)
(-2.69038 0.727277 7.40393 -4.19307 0.287654 -1.78556)
(-1.73567 -0.756386 7.43688 -3.0396 -0.13494 -0.817453)
(-2.73374 -1.71726 6.7949 -3.83798 -0.666471 -2.23701)
(-5.98174 -2.92494 5.54655 -7.11015 -1.11919 -6.18261)
(-2.5256 3.22212 5.73392 -3.55652 1.21094 -2.05591)
(1.95989 2.13853 6.74999 0.955335 0.508198 3.39999)
(0.623971 0.729378 7.49599 -0.907049 0.285162 2.29365)
(1.57336 -0.748458 7.52946 0.240019 -0.152138 3.25633)
(0.495451 -1.71801 6.88543 -0.644961 -0.690594 1.74596)
(-3.50301 -2.93336 5.63229 -4.74318 -1.22292 -3.04128)
(-0.426289 3.22794 5.85259 -1.60107 1.39524 0.653762)
(5.32823 2.13732 6.88303 4.28162 0.512466 7.5589)
(4.07282 0.731094 7.62742 2.51353 0.284282 6.53718)
(5.01108 -0.741008 7.66144 3.6474 -0.165949 7.48834)
(3.86853 -1.71919 7.01552 2.69097 -0.712473 5.90577)
(-1.15681 -2.94172 5.75704 -2.54926 -1.35022 -0.0214319)
(1.49035 3.23686 6.0135 0.121289 1.54286 3.1906)
(8.1741 2.13361 7.05946 7.0785 0.606849 11.0862)
(7.26035 0.732346 7.80141 5.67229 0.307016 10.4618)
(8.18862 -0.73422 7.83595 6.79377 -0.216167 11.4032)
(6.93812 -1.72033 7.18854 5.72406 -0.783737 9.69399)
(0.432247 -2.94765 5.92634 -1.15296 -1.58166 2.11351)
(-20.1321 2.89935 4.75656 -22.5394 2.29156 -22.1985)
(-15.7807 1.78549 5.72227 -18.6072 1.66627 -16.4611)
(-12.7796 0.7779 6.34098 -15.6704 0.656179 -12.7287)
(-10.3829 -0.473576 6.38617 -12.7843 -0.456269 -10.2888)
(-13.1664 -1.27537 5.8939 -15.3315 -1.54972 -13.9272)
(-21.2987 -2.25637 5.01179 -23.9496 -2.55338 -23.3808)
(-18.6749 2.89615 4.75806 -21.1697 2.33922 -20.33)
(-13.6421 1.78858 5.72133 -16.5463 1.79678 -13.7694)
(-10.4192 0.776663 6.34054 -13.3977 0.705578 -9.756)
(-7.94192 -0.472821 6.38635 -10.4209 -0.447875 -7.22781)
(-10.9841 -1.27902 5.89328 -13.2239 -1.64231 -11.1851)
(-19.7745 -2.25854 5.01007 -22.5144 -2.74264 -21.4289)
(-17.3225 2.89507 4.76503 -19.9268 2.45778 -18.5677)
(-11.4475 1.79436 5.72641 -14.4258 1.87645 -11.0132)
(-8.16867 0.773374 6.34703 -11.2465 0.742526 -6.9061)
(-5.60959 -0.472703 6.39438 -8.17556 -0.45366 -4.2902)
(-8.87707 -1.28617 5.89981 -11.2058 -1.72322 -8.52101)
(-18.3636 -2.26225 5.01515 -21.2179 -2.9107 -19.59)
(-16.1063 2.89025 4.76901 -18.8559 2.66417 -16.9359)
(-9.13763 1.79987 5.72645 -12.2007 1.90477 -8.10516)
(-5.9032 0.771073 6.34798 -9.08312 0.767814 -4.0351)
(-3.28993 -0.471489 6.39646 -5.95021 -0.473734 -1.36075)
(-6.73252 -1.29295 5.90038 -9.1574 -1.79901 -5.80376)
(-17.0022 -2.26615 5.01367 -20.0014 -3.07103 -17.7813)
(-14.8645 2.88344 4.77025 -17.8014 2.88399 -15.2307)
(-6.74692 1.8049 5.72309 -9.90396 1.945 -5.0892)
(-3.49864 0.769292 6.34507 -6.78527 0.791838 -0.989487)
(-0.860605 -0.469805 6.39433 -3.62219 -0.497716 1.70973)
(-4.45318 -1.29951 5.89672 -6.98071 -1.8717 -2.91524)
(-15.6748 -2.27011 5.00846 -18.8572 -3.2515 -15.9755)
(-13.5657 2.875 4.76777 -16.7403 3.10722 -13.4058)
(-4.70651 1.80914 5.71541 -7.96572 1.95995 -2.49319)
(-1.37529 0.768032 6.33736 -4.77379 0.785335 1.71758)
(1.23314 -0.467852 6.38701 -1.63671 -0.541783 4.37701)
(-2.34873 -1.30558 5.88796 -4.98336 -1.88383 -0.236054)
(-14.59 -2.27372 4.99858 -18.003 -3.37475 -14.4193)
(-28.4394 2.1764 3.63341 -31.6556 3.2418 -31.543)
(-24.9236 1.53165 4.25924 -29.0153 2.55602 -26.3705)
(-22.6702 0.77645 4.73493 -27.4858 1.02056 -22.8923)
(-20.0067 -0.289042 4.80008 -24.3193 -0.723647 -20.1401)
(-23.0817 -1.01948 4.42615 -26.7842 -2.43774 -24.5085)
(-31.2875 -1.74982 3.7914 -34.9404 -3.5479 -34.5874)
(-27.1784 2.17628 3.63517 -30.5129 3.29357 -29.8835)
(-23.7416 1.53145 4.2598 -27.9511 2.65235 -24.808)
(-21.3666 0.774705 4.73499 -26.3158 1.01492 -21.1656)
(-18.5304 -0.287925 4.80011 -22.9659 -0.69253 -18.2128)
(-21.8332 -1.01992 4.4261 -25.6473 -2.52586 -22.8708)
(-30.5466 -1.74777 3.79172 -34.3326 -3.66962 -33.5488)
(-26.105 2.1773 3.63894 -29.5865 3.42687 -28.4247)
(-22.1192 1.53139 4.25999 -26.4493 2.72595 -22.7046)
(-19.7185 0.771512 4.73461 -24.8101 1.03627 -19.0088)
(-16.7726 -0.285907 4.80034 -21.337 -0.691893 -15.9355)
(-20.2886 -1.02107 4.42603 -24.2259 -2.61105 -20.86)
(-29.671 -1.74341 3.79226 -33.6164 -3.82683 -32.3191)
(-25.3021 2.1774 3.64228 -28.9689 3.6493 -27.2579)
(-20.0712 1.53121 4.26101 -24.5338 2.76258 -20.0689)
(-17.7285 0.768317 4.73474 -22.9659 1.07549 -16.4307)
(-14.7982 -0.283867 4.80045 -19.4996 -0.715167 -13.3853)
(-18.4801 -1.02197 4.42595 -22.549 -2.68942 -18.5178)
(-28.7043 -1.73975 3.79279 -32.8424 -4.01026 -30.9448)
(-24.486 2.17688 3.64515 -28.3823 3.88804 -26.0311)
(-17.9469 1.53091 4.26236 -22.5529 2.816 -17.3292)
(-15.5721 0.765209 4.73507 -20.961 1.11299 -13.6436)
(-12.6668 -0.28183 4.8004 -17.5135 -0.74406 -10.635)
(-16.4976 -1.02271 4.42579 -20.7062 -2.76823 -15.9552)
(-27.7509 -1.73633 3.79335 -32.1229 -4.21608 -29.5459)
(-23.4576 2.17585 3.64752 -27.6352 4.18309 -24.4927)
(-15.4946 1.53045 4.26407 -20.2538 2.92879 -14.1787)
(-12.7985 0.762297 4.73568 -18.3457 1.18135 -10.0953)
(-9.92647 -0.279907 4.80031 -14.9269 -0.832197 -7.13194)
(-13.8371 -1.02316 4.42567 -18.1912 -2.84899 -12.558)
(-26.4828 -1.73317 3.7941 -31.1395 -4.49339 -27.7113)
(-32.5629 1.57956 2.79893 -36.4079 3.68234 -35.9542)
(-29.0184 1.13986 3.21622 -33.9362 2.99644 -30.5491)
(-26.0802 0.673337 3.51783 -31.6909 1.2329 -26.265)
(-23.2912 -0.108924 3.56008 -28.3755 -0.858989 -23.3827)
(-26.673 -0.612524 3.324 -31.0203 -2.85256 -28.253)
(-35.785 -1.07748 2.91321 -40.1167 -4.12409 -39.4055)
(-31.2024 1.58085 2.80107 -35.1812 3.78248 -34.1574)
(-27.2538 1.14222 3.21785 -32.3125 3.16407 -28.2514)
(-24.1249 0.672871 3.51968 -29.9002 1.27121 -23.7108)
(-21.1979 -0.10806 3.56169 -26.4355 -0.845189 -20.6709)
(-24.88 -0.614276 3.32495 -29.3639 -2.99184 -25.925)
(-34.672 -1.07831 2.91352 -39.1447 -4.32522 -37.9043)
(-30.167 1.58331 2.80433 -34.3097 3.95129 -32.7281)
(-25.4436 1.14533 3.22114 -30.6473 3.28286 -25.8941)
(-22.2619 0.671551 3.52327 -28.2166 1.31426 -21.2542)
(-19.2416 -0.106128 3.56444 -24.6453 -0.856028 -18.1137)
(-23.1707 -0.616737 3.32663 -27.8067 -3.11443 -23.6836)
(-33.7154 -1.08 2.91435 -38.3546 -4.53156 -36.5685)
(-29.4958 1.58586 2.80828 -33.8401 4.19572 -31.7061)
(-23.4847 1.14939 3.22424 -28.8471 3.35088 -23.3411)
(-20.3546 0.670559 3.52674 -26.4963 1.35969 -18.7361)
(-17.3472 -0.104519 3.5674 -22.9288 -0.890377 -15.6205)
(-21.4579 -0.61984 3.32837 -26.2584 -3.22676 -21.4257)
(-32.8483 -1.08147 2.91495 -37.6869 -4.75573 -35.3094)
(-28.8326 1.58838 2.8124 -33.4227 4.46064 -30.6499)
(-21.5093 1.15385 3.22729 -27.043 3.4332 -20.7555)
(-18.3518 0.669685 3.53017 -24.6903 1.40638 -16.0914)
(-15.3631 -0.10323 3.57046 -21.1348 -0.930934 -13.0054)
(-19.6358 -0.623324 3.33017 -24.6122 -3.33836 -19.0231)
(-32.0239 -1.0831 2.91568 -37.1024 -4.99874 -34.0618)
(-28.2906 1.59098 2.81666 -33.1788 4.74694 -29.6893)
(-20.0752 1.15862 3.23044 -25.7923 3.49854 -18.8193)
(-16.7215 0.669052 3.53373 -23.2678 1.44812 -13.8911)
(-13.7219 -0.102359 3.57377 -19.6963 -1.00951 -10.7969)
(-18.0017 -0.627139 3.3322 -23.1632 -3.38963 -16.8405)
(-31.5377 -1.08517 2.91681 -36.9089 -5.21354 -33.1749)
(-36.3442 1.36637 2.31155 -40.5373 4.1446 -40.2277)
(-33.4327 1.11236 2.64879 -38.8782 3.44878 -35.4167)
(-31.5946 0.712562 2.84312 -38.2758 1.38949 -31.9344)
(-29.0532 -0.0102904 2.8509 -35.2867 -0.986249 -29.2759)
(-31.8878 -0.481021 2.6586 -37.0372 -3.29319 -33.8246)
(-40.5711 -0.815606 2.35742 -45.2557 -4.57601 -44.9023)
(-35.0675 1.36665 2.31263 -39.4052 4.24529 -38.5225)
(-32.2502 1.11063 2.64858 -37.8554 3.59797 -33.8117)
(-30.2799 0.709759 2.84301 -37.151 1.38373 -30.1377)
(-27.6344 -0.00907243 2.85017 -34.0485 -0.947269 -27.3613)
(-30.7789 -0.48052 2.65775 -36.0845 -3.42869 -32.313)
(-40.0224 -0.814282 2.35662 -44.8602 -4.74133 -44.0786)
(-34.1361 1.36788 2.31421 -38.6524 4.42154 -37.2056)
(-30.8029 1.11029 2.64799 -36.5763 3.71439 -31.8746)
(-28.7899 0.707385 2.8424 -35.8627 1.41254 -28.1149)
(-26.0613 -0.00616755 2.84877 -32.6651 -0.950928 -25.2489)
(-29.4766 -0.479708 2.65627 -34.9556 -3.55392 -30.5481)
(-39.3984 -0.812399 2.35539 -44.4163 -4.93469 -43.1356)
(-33.5549 1.36835 2.31615 -38.2858 4.67682 -36.2807)
(-29.0796 1.10749 2.64764 -35.0358 3.79161 -29.5856)
(-27.1271 0.702551 2.84224 -34.4106 1.46919 -25.8718)
(-24.3802 -0.00390156 2.8475 -31.1873 -0.991516 -22.991)
(-27.9815 -0.478789 2.65473 -33.6446 -3.67117 -28.5366)
(-38.7288 -0.810155 2.35397 -43.9612 -5.14999 -42.1029)
(-33.0162 1.36794 2.31823 -38.0059 4.94962 -35.3635)
(-27.2749 1.10353 2.64743 -33.4276 3.88149 -27.1833)
(-25.3047 0.696642 2.84232 -32.81 1.52438 -23.4226)
(-22.5626 -0.00219288 2.84643 -29.5862 -1.03922 -20.553)
(-26.3171 -0.477861 2.65326 -32.1754 -3.78787 -26.3072)
(-38.0425 -0.807845 2.35257 -43.5326 -5.39595 -41.0064)
(-32.6284 1.36676 2.32043 -37.9294 5.25792 -34.5781)
(-25.4046 1.09854 2.64748 -31.7668 3.98733 -24.6879)
(-23.1698 0.689844 2.84275 -30.9096 1.61607 -20.5788)
(-20.4317 -0.00113572 2.84568 -27.686 -1.1517 -17.7179)
(-24.1604 -0.476982 2.65199 -30.2233 -3.87179 -23.4664)
(-37.1563 -0.805625 2.35128 -42.9573 -5.6956 -39.6122)
(-37.8116 1.15609 1.95218 -42.2207 4.2982 -41.805)
(-35.3774 0.684645 2.25999 -41.272 3.60444 -37.3445)
(-34.071 0.359188 2.34062 -41.3589 1.45886 -34.3545)
(-31.8036 0.0607005 2.21549 -38.671 -1.10336 -32.0036)
(-33.9343 -0.294857 2.03144 -39.4846 -3.50059 -35.9249)
(-42.3073 -0.504657 1.7964 -47.326 -4.8218 -46.6902)
(-36.4976 1.15456 1.95286 -41.0589 4.42816 -40.0469)
(-33.859 0.685767 2.2602 -39.9274 3.78716 -35.3147)
(-32.375 0.358705 2.34163 -39.8715 1.48307 -32.073)
(-30.0448 0.0606165 2.21665 -37.1121 -1.07207 -29.654)
(-32.4666 -0.295048 2.03208 -38.1883 -3.65141 -33.9598)
(-41.4737 -0.505981 1.79719 -46.6533 -5.02639 -45.5105)
(-35.5835 1.15426 1.95274 -40.3292 4.61942 -38.7453)
(-32.2705 0.682834 2.262 -38.5198 3.91556 -33.1924)
(-30.7389 0.353059 2.34427 -38.461 1.516 -29.8476)
(-28.3683 0.0622177 2.21826 -35.6513 -1.08254 -27.3893)
(-31.0401 -0.294914 2.03313 -36.9525 -3.79015 -32.0255)
(-40.7556 -0.507221 1.79838 -46.1228 -5.24561 -44.4452)
(-35.0829 1.15174 1.95382 -40.0524 4.87183 -37.9096)
(-30.5175 0.684229 2.26238 -36.9663 3.97256 -30.8503)
(-28.9986 0.351609 2.34608 -36.9539 1.53802 -27.4875)
(-26.6796 0.0622154 2.2203 -34.189 -1.13733 -25.0991)
(-29.5621 -0.295254 2.03431 -35.6783 -3.92249 -30.0153)
(-40.1033 -0.509373 1.7998 -45.6921 -5.48827 -43.4263)
(-34.6272 1.14823 1.95547 -39.8663 5.14649 -37.0831)
(-28.7632 0.688134 2.26179 -35.4271 4.05795 -28.4911)
(-27.1804 0.352628 2.34721 -35.3805 1.57584 -25.0203)
(-24.8939 0.0612639 2.22257 -32.643 -1.19905 -22.6768)
(-27.9642 -0.296037 2.03559 -34.2969 -4.05677 -27.8458)
(-39.4801 -0.512136 1.80134 -45.3322 -5.75515 -42.4014)
(-34.4959 1.14411 1.95761 -40.0591 5.46255 -36.5986)
(-27.5831 0.694213 2.26048 -34.4772 4.18193 -26.8186)
(-25.8006 0.355963 2.3478 -34.259 1.67814 -23.0756)
(-23.4172 0.0594856 2.22509 -31.4205 -1.30382 -20.6178)
(-26.4723 -0.297312 2.03705 -33.0327 -4.13998 -25.7947)
(-39.1147 -0.515487 1.80297 -45.2853 -6.01599 -41.6362)
(-42.1563 1.04235 1.708 -47.0935 4.74226 -46.5872)
(-40.3332 0.575912 2.04219 -46.9691 4.06454 -42.6601)
(-35.89 0.234239 2.07981 -43.5033 1.43306 -36.2523)
(-33.7716 0.0548669 1.87473 -40.9822 -1.30645 -34.0658)
(-37.1039 -0.285714 1.64015 -43.0979 -3.8009 -39.3552)
(-45.2228 -0.521681 1.39599 -50.4626 -5.11764 -50.0326)
(-41.0675 1.03895 1.70755 -46.1714 4.85946 -45.0898)
(-39.2012 0.575623 2.03914 -46.0298 4.20512 -41.084)
(-34.503 0.233506 2.07728 -42.3351 1.38031 -34.3382)
(-32.3628 0.0542242 1.8742 -39.7818 -1.26304 -32.1355)
(-36.0726 -0.285649 1.63976 -42.2492 -3.95081 -37.9121)
(-44.711 -0.521101 1.39636 -50.1179 -5.30853 -49.2399)
(-40.3427 1.03651 1.70643 -45.6558 5.05197 -43.9946)
(-38.0004 0.57203 2.03773 -45.0421 4.3461 -39.4031)
(-33.0515 0.228241 2.07619 -41.1068 1.40184 -32.341)
(-30.8263 0.0549653 1.8733 -38.4559 -1.27716 -30.047)
(-34.9102 -0.285426 1.63905 -41.2906 -4.09431 -36.2877)
(-44.1776 -0.521207 1.39668 -49.7795 -5.52465 -48.3929)
(-39.8357 1.03066 1.7054 -45.3895 5.30225 -43.1343)
(-36.6867 0.57113 2.03243 -43.9485 4.50303 -37.5775)
(-31.6644 0.226512 2.07188 -39.9629 1.52129 -30.4025)
(-29.2421 0.0539963 1.8723 -37.1046 -1.35145 -27.8777)
(-33.5864 -0.285259 1.63838 -40.1822 -4.23783 -34.4543)
(-43.6253 -0.520295 1.39734 -49.4561 -5.76912 -47.4891)
(-39.4171 1.02326 1.70421 -45.2529 5.58379 -42.3405)
(-35.2158 0.571755 2.02509 -42.7079 4.65165 -35.5494)
(-30.1326 0.226804 2.06595 -38.6934 1.62378 -28.268)
(-27.5684 0.0520495 1.87115 -35.6841 -1.42585 -25.5791)
(-32.0988 -0.285134 1.6378 -38.9224 -4.38214 -32.4083)
(-43.0651 -0.518795 1.39822 -49.1665 -6.04109 -46.5337)
(-39.3533 1.01476 1.70283 -45.5214 5.94483 -41.9305)
(-33.4845 0.573709 2.01605 -41.2171 4.73966 -33.1929)
(-28.3169 0.228981 2.05859 -37.1604 1.71313 -25.7661)
(-25.8312 0.0492913 1.86988 -34.2213 -1.54115 -23.1813)
(-30.2534 -0.285087 1.63735 -37.3161 -4.48003 -29.9136)
(-42.465 -0.516839 1.3993 -48.8934 -6.33464 -45.4732)
(-43.6206 0.68312 1.26365 -48.7115 4.87705 -48.2232)
(-42.6322 0.416205 1.35552 -49.734 4.19696 -45.0042)
(-37.8569 0.114377 1.36023 -45.9231 1.41243 -38.2033)
(-35.8667 -0.0385783 1.46838 -43.5109 -1.52218 -36.1929)
(-39.461 -0.296208 1.26576 -45.8726 -4.05992 -41.8184)
(-46.5344 -0.479994 1.06402 -52.0241 -5.29168 -51.3856)
(-42.5567 0.681534 1.26323 -47.8196 5.00216 -46.7508)
(-41.4034 0.416522 1.35555 -48.71 4.36236 -43.2976)
(-36.359 0.114934 1.36128 -44.6569 1.39131 -36.1408)
(-34.2898 -0.0382625 1.46798 -42.1551 -1.49467 -34.0443)
(-38.1964 -0.295914 1.26621 -44.8025 -4.22386 -40.0785)
(-45.8043 -0.479506 1.06442 -51.4696 -5.51148 -50.3179)
(-41.8942 0.677652 1.26197 -47.3678 5.19339 -45.7305)
(-40.2242 0.418388 1.35292 -47.753 4.5041 -41.634)
(-34.9413 0.116075 1.35942 -43.482 1.41443 -34.1653)
(-32.735 -0.0362963 1.46823 -40.8312 -1.52022 -31.9133)
(-36.9619 -0.295415 1.267 -43.7864 -4.37819 -38.3511)
(-45.2025 -0.478215 1.06519 -51.0714 -5.74302 -49.3785)
(-41.5794 0.674592 1.26116 -47.2999 5.42098 -45.0987)
(-39.1242 0.419083 1.35274 -46.8852 4.61268 -40.0574)
(-33.7053 0.117166 1.36099 -42.5044 1.48822 -32.3962)
(-31.1816 -0.035571 1.46754 -39.5261 -1.60897 -29.7664)
(-35.6319 -0.294805 1.26779 -42.6852 -4.52752 -36.4968)
(-44.6564 -0.477237 1.06592 -50.7645 -5.98809 -48.472)
(-41.3189 0.672188 1.26107 -47.3306 5.69034 -44.4892)
(-37.8229 0.419415 1.35423 -45.8277 4.73531 -38.2232)
(-32.2764 0.118466 1.36463 -41.3515 1.56469 -30.3738)
(-29.5537 -0.0355863 1.46642 -38.1647 -1.69559 -27.5103)
(-34.1702 -0.294171 1.26855 -41.464 -4.67909 -34.4698)
(-44.1684 -0.47625 1.06665 -50.5597 -6.26456 -47.5922)
(-41.2518 0.670568 1.26176 -47.6076 6.08796 -44.0631)
(-36.2034 0.419456 1.35736 -44.4638 4.86422 -35.9882)
(-30.6066 0.119912 1.37017 -39.9769 1.67041 -28.0378)
(-28.1478 -0.0362505 1.46508 -37.0449 -1.79159 -25.5058)
(-32.786 -0.29353 1.26931 -40.3307 -4.7799 -32.527)
(-44.038 -0.475186 1.06743 -50.7667 -6.55708 -47.0955)
(-45.4404 0.45416 1.00012 -50.7875 5.04601 -50.1911)
(-44.5761 0.244248 1.05104 -52.0617 4.34753 -46.9963)
(-38.8753 -0.01689 1.06133 -47.168 1.59738 -39.2216)
(-37.017 -0.0771046 1.19746 -44.8409 -1.4384 -37.419)
(-41.3942 -0.271602 1.02177 -48.0477 -4.25602 -43.9396)
(-48.9661 -0.38507 0.824756 -54.6147 -5.53727 -54.1988)
(-44.5436 0.452702 0.999981 -50.0694 5.13847 -48.9164)
(-43.7637 0.244945 1.05094 -51.4632 4.5127 -45.7894)
(-37.7249 -0.0151272 1.06169 -46.2561 1.55895 -37.5771)
(-35.6818 -0.0770918 1.19629 -43.7323 -1.38209 -35.5605)
(-40.4223 -0.270932 1.02132 -47.2771 -4.41407 -42.5502)
(-48.5304 -0.384516 0.824186 -54.3623 -5.73227 -53.4829)
(-43.917 0.448158 0.999011 -49.6588 5.32492 -47.9345)
(-42.6741 0.244961 1.04855 -50.6049 4.66255 -44.2264)
(-36.332 -0.0146512 1.05933 -45.107 1.59261 -35.6307)
(-34.2694 -0.0762354 1.19534 -42.5504 -1.39477 -33.6038)
(-39.3689 -0.269994 1.02067 -46.4489 -4.56837 -41.0375)
(-48.1186 -0.382707 0.823534 -54.1628 -5.96078 -52.7674)
(-43.4133 0.445281 0.998704 -49.4084 5.59881 -47.0655)
(-41.1462 0.246086 1.04816 -49.3176 4.81468 -42.1183)
(-34.6103 -0.0117436 1.05971 -43.6507 1.71818 -33.2611)
(-32.9003 -0.0760537 1.19326 -41.4351 -1.49165 -31.6766)
(-38.1836 -0.268776 1.01985 -45.5001 -4.72425 -39.3524)
(-47.7274 -0.381581 0.822558 -54.0187 -6.22572 -52.0421)
(-42.9925 0.443601 0.999061 -49.2859 5.90589 -46.2529)
(-39.5413 0.247871 1.04912 -47.9657 4.96845 -39.9039)
(-32.8772 -0.00759877 1.0617 -42.204 1.82693 -30.8565)
(-31.3902 -0.076217 1.19066 -40.2006 -1.58523 -29.5554)
(-36.8356 -0.267473 1.01893 -44.4011 -4.88213 -37.4558)
(-47.3325 -0.380728 0.821579 -53.9142 -6.51597 -51.2692)
(-43.059 0.443194 1.00015 -49.7043 6.30326 -45.9824)
(-38.0732 0.250303 1.05146 -46.7633 5.06662 -37.8438)
(-31.4701 -0.0023871 1.06524 -41.106 1.90651 -28.8276)
(-29.6843 -0.0766268 1.18776 -38.7933 -1.70933 -27.1718)
(-35.1901 -0.266122 1.01797 -43.016 -4.99986 -35.1842)
(-46.9577 -0.380039 0.820731 -53.8854 -6.8371 -50.465)
(-46.0747 0.370274 0.935171 -51.4961 5.09616 -50.8921)
(-46.0577 0.282117 0.983337 -53.8632 4.41833 -48.4873)
(-40.0123 0.135795 0.95934 -48.5586 1.60226 -40.3576)
(-38.0651 -0.0482324 0.914311 -46.0897 -1.60005 -38.4993)
(-42.8429 -0.165475 0.76135 -49.7147 -4.43737 -45.4919)
(-49.983 -0.222883 0.590954 -55.7487 -5.68581 -55.3246)
(-45.152 0.369255 0.934987 -50.7547 5.18783 -49.5831)
(-45.0954 0.28168 0.98251 -53.1211 4.58923 -47.0908)
(-38.7684 0.135064 0.958789 -47.5614 1.58955 -38.5906)
(-36.6316 -0.0478725 0.914283 -44.8902 -1.56775 -36.5134)
(-41.7226 -0.165546 0.76151 -48.8012 -4.60353 -43.9156)
(-49.4377 -0.223258 0.591199 -55.3915 -5.905 -54.47)
(-44.5562 0.368855 0.935832 -50.3762 5.37155 -48.6377)
(-44.0053 0.282556 0.982687 -52.2668 4.73755 -45.5227)
(-37.4146 0.13483 0.959163 -46.4638 1.6288 -36.6798)
(-35.2088 -0.0467717 0.914699 -43.7093 -1.59271 -34.5326)
(-40.6129 -0.165527 0.761851 -47.9226 -4.76405 -42.3283)
(-49.0034 -0.224268 0.591455 -55.1739 -6.14725 -53.7225)
(-44.2004 0.367154 0.935519 -50.2767 5.63147 -47.9463)
(-42.7066 0.281904 0.981318 -51.2133 4.86658 -43.6901)
(-35.9118 0.133665 0.958288 -45.2366 1.73895 -34.5674)
(-33.865 -0.0460651 0.914649 -42.6289 -1.69371 -32.6267)
(-39.4036 -0.165617 0.762128 -46.9555 -4.92148 -40.6081)
(-48.6227 -0.224948 0.591856 -55.0457 -6.41697 -53.0047)
(-43.9044 0.364772 0.934354 -50.2833 5.9309 -47.2821)
(-41.2644 0.280432 0.979108 -50.0289 5.00679 -41.6699)
(-34.3251 0.132047 0.956793 -43.9458 1.83812 -32.3321)
(-32.3934 -0.0456531 0.914282 -41.4419 -1.79031 -30.5434)
(-38.0571 -0.165788 0.762384 -45.8635 -5.08356 -38.7078)
(-48.263 -0.225485 0.592434 -54.9822 -6.71332 -52.2689)
(-43.9514 0.361852 0.932424 -50.6876 6.35299 -46.9821)
(-39.8055 0.278214 0.976169 -48.8406 5.12756 -39.6159)
(-32.9165 0.13002 0.954741 -42.8552 1.90872 -30.2925)
(-30.8876 -0.0455614 0.913662 -40.2433 -1.89126 -28.3958)
(-36.7091 -0.166066 0.762661 -44.7814 -5.20786 -36.7943)
(-48.2027 -0.225906 0.59326 -55.2737 -7.03025 -51.8435)
(-46.6077 0.130145 0.746245 -52.0776 5.15523 -51.495)
(-46.3797 0.162458 0.728764 -54.2156 4.44208 -48.8504)
(-41.0857 0.110851 0.690982 -49.8719 1.57585 -41.4296)
(-39.3872 -0.0419963 0.688085 -47.6612 -1.61232 -39.866)
(-43.6621 -0.126816 0.590759 -50.5764 -4.55595 -46.4505)
(-51.1959 -0.130737 0.473119 -56.9727 -5.81858 -56.7959)
(-45.6791 0.131112 0.746301 -51.3313 5.24754 -50.1779)
(-45.6005 0.162386 0.729181 -53.6601 4.6172 -47.6745)
(-39.9646 0.110813 0.691532 -49.0023 1.5355 -39.8078)
(-38.0829 -0.0416043 0.687808 -46.5956 -1.55102 -38.0331)
(-42.7335 -0.126451 0.590448 -49.8579 -4.72258 -45.1053)
(-50.8206 -0.130417 0.472671 -56.7847 -6.0322 -56.1499)
(-45.0933 0.132213 0.746996 -50.9637 5.43157 -49.2437)
(-44.6015 0.161616 0.7295 -52.9028 4.76765 -46.2117)
(-38.661 0.110233 0.691869 -47.9574 1.56548 -37.9559)
(-36.7426 -0.0406828 0.687472 -45.4991 -1.56628 -36.1511)
(-41.7563 -0.125748 0.589966 -49.1173 -4.88719 -43.6745)
(-50.4828 -0.129889 0.471915 -56.6636 -6.27368 -55.5204)
(-44.7893 0.133955 0.747148 -50.9169 5.69195 -48.6148)
(-43.3125 0.161372 0.730235 -51.8649 4.90123 -44.3851)
(-37.1503 0.109986 0.692847 -46.7259 1.67955 -35.8304)
(-35.5042 -0.0399187 0.686986 -44.5274 -1.6743 -34.3708)
(-40.6615 -0.125065 0.589387 -48.2699 -5.0547 -42.0891)
(-50.156 -0.12932 0.471139 -56.5885 -6.54515 -54.8693)
(-44.5421 0.136045 0.746951 -50.973 5.99285 -48.0094)
(-41.8831 0.161438 0.7311 -50.6993 5.04376 -42.3743)
(-35.573 0.109886 0.694106 -45.4488 1.78181 -33.6024)
(-34.1085 -0.0392647 0.686449 -43.4203 -1.77811 -32.3764)
(-39.3976 -0.124438 0.588772 -47.2659 -5.22423 -40.2844)
(-49.8216 -0.128925 0.470401 -56.5493 -6.84434 -54.1653)
(-44.5685 0.138444 0.746412 -51.3576 6.41609 -47.6837)
(-40.2959 0.161835 0.732068 -49.3891 5.15763 -40.1573)
(-34.1126 0.109966 0.695597 -44.3114 1.877 -31.4943)
(-32.4447 -0.0387488 0.685915 -42.0686 -1.91042 -30.0309)
(-37.8564 -0.123923 0.588155 -45.996 -5.3505 -38.1294)
(-49.5875 -0.128856 0.469724 -56.666 -7.17219 -53.5284)
(-45.6827 0.0978609 0.535606 -51.0365 5.06525 -50.4806)
(-45.9915 0.1542 0.578887 -53.8258 4.37319 -48.3776)
(-41.2588 0.178879 0.525623 -50.1105 1.58439 -41.5757)
(-39.9027 -0.033663 0.488237 -48.2825 -1.6926 -40.3903)
(-44.2093 -0.108374 0.410412 -51.2136 -4.61781 -47.0293)
(-50.911 -0.133704 0.306816 -56.6084 -5.81053 -56.5273)
(-44.708 0.0984988 0.536278 -50.2429 5.16698 -49.1083)
(-45.0114 0.15302 0.579101 -53.0683 4.53694 -46.9569)
(-40.022 0.176663 0.52643 -49.1285 1.56554 -39.8092)
(-38.5461 -0.0333381 0.488525 -47.1695 -1.65562 -38.4886)
(-43.1675 -0.108268 0.410491 -50.3826 -4.78324 -45.5451)
(-50.4309 -0.133354 0.307186 -56.3102 -6.02643 -55.7585)
(-44.1079 0.10137 0.536292 -49.8606 5.35747 -48.1568)
(-43.9059 0.150681 0.580379 -52.2022 4.68295 -45.3665)
(-38.6623 0.173364 0.528189 -48.0318 1.60176 -37.8845)
(-37.1867 -0.0327487 0.48904 -46.0607 -1.6809 -36.5764)
(-42.1249 -0.107971 0.41084 -49.5758 -4.94706 -44.0351)
(-50.0299 -0.13262 0.307634 -56.1201 -6.26814 -55.0574)
(-43.8395 0.10278 0.537346 -49.8501 5.6277 -47.571)
(-42.581 0.148498 0.580862 -51.1269 4.81974 -43.4976)
(-37.1206 0.169396 0.529698 -46.7738 1.71456 -35.7164)
(-35.9112 -0.032181 0.489579 -45.0586 -1.78874 -34.744)
(-40.9728 -0.107745 0.411019 -48.6706 -5.11148 -42.3801)
(-49.6554 -0.131946 0.308319 -55.9923 -6.54081 -54.3531)
(-43.6239 0.103394 0.538806 -49.9392 5.93557 -47.0028)
(-41.1434 0.146492 0.580865 -49.9519 4.96657 -41.4779)
(-35.5336 0.16522 0.530971 -45.4922 1.81481 -33.4713)
(-34.5005 -0.031657 0.49011 -43.9435 -1.89252 -32.7243)
(-39.6789 -0.107584 0.411131 -47.6363 -5.28174 -40.5391)
(-49.2961 -0.13141 0.309131 -55.9231 -6.84342 -53.6238)
(-43.6892 0.103275 0.540578 -50.3643 6.34309 -46.7228)
(-39.7806 0.144667 0.580485 -48.8653 5.0884 -39.536)
(-34.2709 0.160974 0.532008 -44.5584 1.88434 -31.5991)
(-33.0156 -0.0312381 0.490651 -42.7779 -2.00474 -30.59)
(-38.3365 -0.107518 0.411214 -46.5655 -5.41876 -38.6267)
(-49.1946 -0.131117 0.310045 -56.1685 -7.16668 -53.1528)
(-46.0266 0.0427437 0.414602 -51.3714 5.12693 -50.91)
(-45.8928 0.00954053 0.485984 -53.6076 4.3901 -48.3763)
(-42.1657 0.0387539 0.442202 -51.2325 1.4826 -42.469)
(-41.47 -0.0715735 0.374035 -50.1731 -1.71414 -41.9824)
(-44.9671 -0.123023 0.285148 -52.0309 -4.72174 -47.896)
(-51.901 -0.2006 0.185625 -57.6671 -5.91659 -57.6685)
(-45.1108 0.043488 0.415173 -50.6377 5.24627 -49.6085)
(-45.018 0.010237 0.485443 -52.9574 4.54464 -47.0826)
(-40.9288 0.038447 0.442025 -50.2531 1.41118 -40.6999)
(-40.1701 -0.0715689 0.374041 -49.1208 -1.65127 -40.1461)
(-44.0478 -0.123212 0.285236 -51.326 -4.89046 -46.558)
(-51.5029 -0.200231 0.186267 -57.4534 -6.12572 -56.9974)
(-44.5302 0.0457981 0.415042 -50.2792 5.44095 -48.6768)
(-44.0334 0.00850529 0.485604 -52.2207 4.68924 -45.6313)
(-39.5837 0.035799 0.442333 -49.1704 1.42303 -38.7932)
(-38.8486 -0.0718429 0.37394 -48.0505 -1.66878 -38.2797)
(-43.1015 -0.123525 0.285387 -50.6206 -5.059 -45.1605)
(-51.1551 -0.200328 0.186842 -57.3195 -6.36665 -56.3585)
(-44.1544 0.0473385 0.415867 -50.1641 5.68582 -47.9568)
(-42.8721 0.00947623 0.484693 -51.3158 4.8274 -43.9556)
(-38.1304 0.0350066 0.442063 -48.0008 1.52741 -36.7334)
(-37.6464 -0.0718208 0.373947 -47.1219 -1.78202 -36.5369)
(-42.066 -0.123842 0.285575 -49.8371 -5.23288 -43.6428)
(-50.8128 -0.199707 0.187981 -57.2258 -6.64198 -55.6916)
(-43.8961 0.0486574 0.416997 -50.2122 5.97795 -47.3347)
(-41.5309 0.0118106 0.483222 -50.243 4.97385 -42.0479)
(-36.6127 0.035119 0.441473 -46.7884 1.62573 -34.5732)
(-36.2895 -0.0715346 0.373977 -46.0606 -1.89195 -34.5828)
(-40.8525 -0.124069 0.28583 -48.8887 -5.40924 -41.8946)
(-50.4716 -0.198562 0.189463 -57.176 -6.9464 -54.9832)
(-44.0824 0.0497785 0.418355 -50.7589 6.40041 -47.202)
(-39.9567 0.015374 0.481297 -48.9496 5.10516 -39.8431)
(-35.2791 0.036171 0.440583 -45.7838 1.75624 -32.6142)
(-34.7092 -0.071004 0.37404 -44.7999 -2.0338 -32.3317)
(-39.3662 -0.124168 0.286175 -47.6794 -5.54271 -39.801)
(-50.3211 -0.196832 0.191306 -57.3737 -7.28173 -54.451)
(-46.1034 0.126947 0.334249 -51.5073 5.13302 -50.9447)
(-46.2827 0.107929 0.333955 -54.123 4.40916 -48.7275)
(-41.7199 0.0879567 0.296223 -50.6928 1.49081 -42.0181)
(-41.189 -0.109537 0.28672 -49.8104 -1.82268 -41.7207)
(-45.715 -0.110213 0.219513 -52.912 -4.81163 -48.6769)
(-52.2114 -0.132387 0.188094 -58.0622 -5.96288 -57.9632)
(-45.166 0.1269 0.334036 -50.7535 5.25817 -49.6155)
(-45.3009 0.108718 0.333599 -53.3656 4.55845 -47.3031)
(-40.4777 0.0883141 0.296129 -49.71 1.44678 -40.2404)
(-39.8766 -0.108654 0.286577 -48.7484 -1.79171 -39.8663)
(-44.6997 -0.110347 0.219695 -52.1127 -4.98468 -47.2201)
(-51.7647 -0.132246 0.188132 -57.8071 -6.18857 -57.2256)
(-44.5986 0.126307 0.334062 -50.4117 5.46094 -48.6963)
(-44.2683 0.112549 0.332578 -52.5805 4.71007 -45.7936)
(-39.1285 0.092112 0.295136 -48.6252 1.4756 -38.3271)
(-38.5396 -0.108194 0.286796 -47.6658 -1.82102 -37.9777)
(-43.6915 -0.110869 0.220103 -51.3458 -5.15489 -45.7464)
(-51.4039 -0.131572 0.188525 -57.6668 -6.43707 -56.5641)
(-44.2743 0.126116 0.33369 -50.3495 5.72697 -48.0379)
(-43.0932 0.114235 0.331873 -51.6592 4.88386 -44.1035)
(-37.6813 0.0930946 0.294883 -47.4673 1.61117 -36.2691)
(-37.291 -0.106656 0.28656 -46.6976 -1.92786 -36.1712)
(-42.5707 -0.111098 0.220443 -50.4772 -5.32344 -44.1244)
(-51.0385 -0.131249 0.188616 -57.5576 -6.70797 -55.8613)
(-44.0546 0.125834 0.33307 -50.4363 6.03522 -47.4627)
(-41.7448 0.114586 0.331377 -50.5761 5.05333 -42.1902)
(-36.177 0.0924829 0.295062 -46.276 1.72651 -34.1174)
(-35.9218 -0.104532 0.286082 -45.6328 -2.03109 -34.1934)
(-41.303 -0.11112 0.220695 -49.4743 -5.4965 -42.3102)
(-50.7049 -0.131029 0.18853 -57.5239 -7.01008 -55.1536)
(-44.2381 0.125427 0.332221 -50.9794 6.4345 -47.3275)
(-40.264 0.113697 0.331084 -49.3723 5.15348 -40.1032)
(-34.9122 0.0904501 0.295632 -45.3499 1.79446 -32.2328)
(-34.4943 -0.10197 0.285414 -44.5355 -2.14965 -32.1185)
(-40.0173 -0.110917 0.220844 -48.4651 -5.63603 -40.4623)
(-50.8007 -0.13087 0.188256 -57.9757 -7.35258 -54.9148)
(-46.3184 0.160178 0.180197 -51.7239 5.15227 -51.2058)
(-46.097 0.142496 0.189718 -53.8702 4.38305 -48.5677)
(-43.5505 0.109461 0.175937 -52.9422 1.45542 -43.8366)
(-42.964 -0.0721955 0.1917 -51.9632 -1.76387 -43.5125)
(-45.3977 -0.0689116 0.147879 -52.4956 -4.8078 -48.3882)
(-52.2571 -0.0632675 0.138787 -58.0601 -5.95755 -58.0667)
(-45.3943 0.159388 0.180223 -50.9805 5.26573 -49.8958)
(-45.3055 0.142293 0.18936 -53.3042 4.57062 -47.3747)
(-42.4319 0.109087 0.175636 -52.0903 1.4167 -42.2028)
(-41.6928 -0.0712213 0.191439 -50.9488 -1.69854 -41.7018)
(-44.464 -0.0685605 0.147927 -51.7785 -4.98354 -47.0304)
(-51.8396 -0.0627293 0.13855 -57.8292 -6.16222 -57.3699)
(-44.7939 0.158077 0.180359 -50.5959 5.45624 -48.9461)
(-44.3185 0.145088 0.188424 -52.56 4.72003 -45.9257)
(-41.167 0.111867 0.17449 -51.1033 1.43468 -40.379)
(-40.4539 -0.0704473 0.191264 -49.9772 -1.71131 -39.9205)
(-43.5168 -0.0683019 0.147963 -51.0729 -5.15508 -45.6311)
(-51.4999 -0.0612747 0.138482 -57.705 -6.40329 -56.7394)
(-44.4485 0.156602 0.180401 -50.5063 5.70185 -48.268)
(-43.1109 0.145128 0.187712 -51.6085 4.82607 -44.1935)
(-39.6681 0.111652 0.173876 -49.8989 1.49962 -38.2524)
(-39.3643 -0.0687934 0.19079 -49.1729 -1.81165 -38.3033)
(-42.517 -0.0677098 0.14804 -50.3283 -5.32721 -44.1539)
(-51.213 -0.0602298 0.1381 -57.6688 -6.68487 -56.1378)
(-44.2162 0.154744 0.180376 -50.5765 5.99083 -47.6816)
(-41.7463 0.143588 0.187205 -50.5145 4.94973 -42.255)
(-38.1218 0.109832 0.173623 -48.6664 1.57056 -36.0487)
(-38.0882 -0.0666685 0.190143 -48.2021 -1.91502 -36.4384)
(-41.3488 -0.0669089 0.148067 -49.4296 -5.50279 -42.4566)
(-50.9247 -0.0594309 0.137551 -57.6752 -6.99365 -55.4908)
(-44.3526 0.152506 0.180295 -51.0708 6.41546 -47.4904)